LAMMPS (2 Aug 2018)
#  This is the control script for LAMMPS
echo            both
units           metal
atom_style      atomic
boundary        p  p  f

read_data       lammps.dat
  orthogonal box = (0 0 0) to (11.5043 13.284 106)
  1 by 2 by 14 MPI processor grid
  reading atoms ...
  48 atoms
replicate       87 10  1
  orthogonal box = (0 0 0) to (1000.87 132.84 106)
  14 by 2 by 1 MPI processor grid
  41760 atoms
  Time spent = 0.00422096 secs

neighbor        2.0 bin
neigh_modify    delay 0 every 1 check yes

pair_style      sw
pair_coeff      * *  MoSe2.sw  S Mo C

thermo_style    custom step temp pe ke etotal lx ly lz pxx pyy  vol
thermo          5000
fix             A all box/relax x 0.0 y 0.0
min_style       cg
minimize        1.0e-20 1.0e-20 1000000 1000000
Neighbor list info ...
  update every 1 steps, delay 0 steps, check yes
  max neighbors/atom: 2000, page size: 100000
  master list distance cutoff = 6.55
  ghost atom cutoff = 6.55
  binsize = 3.275, bins = 306 41 33
  1 neighbor lists, perpetual/occasional/extra = 1 0 0
  (1) pair sw, perpetual
      attributes: full, newton on
      pair build: full/bin/atomonly
      stencil: full/bin/3d
      bin: standard
Per MPI rank memory allocation (min/avg/max) = 3.965 | 3.969 | 3.97 Mbytes
Step Temp PotEng KinEng TotEng Lx Ly Lz Pxx Pyy Volume 
       0            0   -185090.19            0   -185090.19    1000.8725       132.84          106    3485.8429    3485.4316     14093326 
    4498            0   -185992.34            0   -185992.34    1006.9915    133.65215          106 1.3153665e-05 1.3381155e-05     14266178 
Loop time of 33.6188 on 28 procs for 4498 steps with 41760 atoms

99.8% CPU use with 28 MPI tasks x no OpenMP threads

Minimization stats:
  Stopping criterion = linesearch alpha is zero
  Energy initial, next-to-last, final = 
        -185090.190107     -185992.343145     -185992.343145
  Force two-norm initial, final = 43361.4 0.000168064
  Force max component initial, final = 30662.7 0.000118425
  Final line search alpha, max atom move = 0.420924 4.9848e-05
  Iterations, force evaluations = 4498 5104

MPI task timing breakdown:
Section |  min time  |  avg time  |  max time  |%varavg| %total
---------------------------------------------------------------
Pair    | 30.432     | 31.067     | 31.702     |   5.0 | 92.41
Neigh   | 0.029099   | 0.029668   | 0.031896   |   0.3 |  0.09
Comm    | 0.25852    | 0.78006    | 1.33       |  32.9 |  2.32
Output  | 0          | 0          | 0          |   0.0 |  0.00
Modify  | 0          | 0          | 0          |   0.0 |  0.00
Other   |            | 1.742      |            |       |  5.18

Nlocal:    1491.43 ave 1500 max 1460 min
Histogram: 4 0 0 0 0 4 0 0 0 20
Nghost:    583.286 ave 631 max 544 min
Histogram: 8 0 4 0 4 4 0 0 4 4
Neighs:    0 ave 0 max 0 min
Histogram: 28 0 0 0 0 0 0 0 0 0
FullNghs:  48720 ave 49000 max 47760 min
Histogram: 4 0 0 0 4 0 0 0 0 20

Total # of neighbors = 1364160
Ave neighs/atom = 32.6667
Neighbor list builds = 23
Dangerous builds = 0
#
variable        T  equal 300
velocity        all create $T 156467 mom yes rot yes dist gaussian
velocity        all create 300 156467 mom yes rot yes dist gaussian
fix             1 all nvt temp $T $T 0.5 drag 0.2
fix             1 all nvt temp 300 $T 0.5 drag 0.2
fix             1 all nvt temp 300 300 0.5 drag 0.2
dump            1 all custom 100000 $T_relax.lammpstrj id type x y z
dump            1 all custom 100000 300_relax.lammpstrj id type x y z

timestep        0.0005
run             1000000
Per MPI rank memory allocation (min/avg/max) = 2.848 | 2.849 | 2.85 Mbytes
Step Temp PotEng KinEng TotEng Lx Ly Lz Pxx Pyy Volume 
    4498          300   -185992.34    1619.3323   -184373.01    1006.9915    133.65215          106    121.53339    122.50084     14266178 
    5000     144.9017   -185124.25    782.14668    -184342.1    1006.9915    133.65215          106   -183.69985   -186.15042     14266178 
   10000    206.66563   -184867.58    1115.5344   -183752.04    1006.9915    133.65215          106   -75.055166   -77.000004     14266178 
   15000    261.03482   -184577.48    1409.0071   -183168.48    1006.9915    133.65215          106   -2.2020134    1.9604138     14266178 
   20000     294.1953   -184386.25    1587.9999   -182798.25    1006.9915    133.65215          106   -33.882437   -30.678205     14266178 
   25000    301.17694   -184335.42    1625.6852   -182709.74    1006.9915    133.65215          106   -91.980393   -92.936194     14266178 
   30000    300.59192   -184328.73    1622.5274   -182706.21    1006.9915    133.65215          106     -115.023   -96.552735     14266178 
   35000    301.18007   -184333.65    1625.7021   -182707.95    1006.9915    133.65215          106   -115.10715   -93.375002     14266178 
   40000    297.56404   -184333.45    1606.1836   -182727.27    1006.9915    133.65215          106   -100.03107   -103.75405     14266178 
   45000    298.04607   -184337.72    1608.7854   -182728.93    1006.9915    133.65215          106    -97.51407   -105.61411     14266178 
   50000    299.49906   -184342.55    1616.6284   -182725.93    1006.9915    133.65215          106   -96.867374   -87.508804     14266178 
   55000    300.70615   -184338.15    1623.1439   -182715.01    1006.9915    133.65215          106   -102.13714   -98.557806     14266178 
   60000    301.47179   -184338.62    1627.2767   -182711.34    1006.9915    133.65215          106   -106.18674   -109.25603     14266178 
   65000    298.24335   -184325.05    1609.8503    -182715.2    1006.9915    133.65215          106   -112.41181   -117.48067     14266178 
   70000    300.03693   -184352.08    1619.5316   -182732.55    1006.9915    133.65215          106   -126.07454   -93.448426     14266178 
   75000    299.83727    -184348.7    1618.4539   -182730.25    1006.9915    133.65215          106   -112.90472     -98.5733     14266178 
   80000    298.88821   -184332.46    1613.3311   -182719.13    1006.9915    133.65215          106   -95.104777   -96.841636     14266178 
   85000    300.46345   -184330.43    1621.8339   -182708.59    1006.9915    133.65215          106    -120.7778   -115.74658     14266178 
   90000    300.92867   -184331.56    1624.3451   -182707.21    1006.9915    133.65215          106   -115.24507   -110.12692     14266178 
   95000    299.11129   -184349.74    1614.5353   -182735.21    1006.9915    133.65215          106   -99.352792   -92.401374     14266178 
  100000     300.2765   -184348.62    1620.8248    -182727.8    1006.9915    133.65215          106   -85.803881    -82.00178     14266178 
  105000    300.67533   -184339.78    1622.9776   -182716.81    1006.9915    133.65215          106   -83.752899   -79.719749     14266178 
  110000    299.63203   -184328.84    1617.3461    -182711.5    1006.9915    133.65215          106   -100.81942   -94.957491     14266178 
  115000    299.34719   -184326.35    1615.8086   -182710.54    1006.9915    133.65215          106   -109.15098   -95.846657     14266178 
  120000    299.56704   -184339.01    1616.9953   -182722.01    1006.9915    133.65215          106   -82.898269   -102.02278     14266178 
  125000    298.46484   -184341.17    1611.0459   -182730.12    1006.9915    133.65215          106   -90.327806   -91.574466     14266178 
  130000    298.11576   -184338.37    1609.1616   -182729.21    1006.9915    133.65215          106   -103.63756   -87.713731     14266178 
  135000     299.9186   -184334.61    1618.8929   -182715.71    1006.9915    133.65215          106   -100.06715   -106.73095     14266178 
  140000     300.1167   -184331.36    1619.9622    -182711.4    1006.9915    133.65215          106    -100.4877   -111.35348     14266178 
  145000    299.77008   -184337.21    1618.0913   -182719.12    1006.9915    133.65215          106   -98.770654   -83.661608     14266178 
  150000    299.01812   -184350.72    1614.0323   -182736.69    1006.9915    133.65215          106   -73.828318   -71.796072     14266178 
  155000    298.52105   -184336.22    1611.3493   -182724.88    1006.9915    133.65215          106   -110.92506   -96.740671     14266178 
  160000    301.49683   -184341.56    1627.4118   -182714.14    1006.9915    133.65215          106   -115.40022   -104.14836     14266178 
  165000      300.147   -184329.46    1620.1258   -182709.33    1006.9915    133.65215          106   -102.51707   -123.68126     14266178 
  170000    298.28074   -184332.21    1610.0521   -182722.15    1006.9915    133.65215          106   -115.08001   -106.05236     14266178 
  175000    299.18885   -184345.05    1614.9539   -182730.09    1006.9915    133.65215          106   -105.62161   -110.64199     14266178 
  180000    298.98105   -184339.19    1613.8323   -182725.36    1006.9915    133.65215          106   -102.98537   -105.05081     14266178 
  185000    300.52196   -184336.08    1622.1497   -182713.93    1006.9915    133.65215          106   -119.30461   -80.980815     14266178 
  190000    300.12185   -184330.78      1619.99   -182710.79    1006.9915    133.65215          106   -99.761462    -94.16801     14266178 
  195000     299.3497   -184330.71    1615.8221   -182714.89    1006.9915    133.65215          106   -90.453685   -85.988048     14266178 
  200000    297.86954   -184338.03    1607.8326   -182730.19    1006.9915    133.65215          106   -104.17438   -80.514249     14266178 
  205000    297.49842   -184336.99    1605.8293   -182731.16    1006.9915    133.65215          106    -100.0798   -96.956617     14266178 
  210000    300.73596   -184343.27    1623.3049   -182719.97    1006.9915    133.65215          106    -90.32867   -94.545521     14266178 
  215000     302.1349   -184340.84     1630.856   -182709.98    1006.9915    133.65215          106   -110.28915   -107.01059     14266178 
  220000    300.02499   -184331.16    1619.4672    -182711.7    1006.9915    133.65215          106   -94.336018   -78.783366     14266178 
  225000    299.01052   -184340.49    1613.9913    -182726.5    1006.9915    133.65215          106    -84.59277   -71.174938     14266178 
  230000    300.56232   -184355.27    1622.3676    -182732.9    1006.9915    133.65215          106   -72.181229   -71.909812     14266178 
  235000    300.19651   -184341.77    1620.3931   -182721.38    1006.9915    133.65215          106   -76.519142   -98.079708     14266178 
  240000    300.45672   -184333.99    1621.7976   -182712.19    1006.9915    133.65215          106   -84.119031   -94.659442     14266178 
  245000    298.72389   -184323.12    1612.4442   -182710.67    1006.9915    133.65215          106   -83.386754   -99.594396     14266178 
  250000    300.55349   -184338.58    1622.3199   -182716.26    1006.9915    133.65215          106   -93.820427   -88.163636     14266178 
  255000    298.08851   -184339.83    1609.0145   -182730.82    1006.9915    133.65215          106   -86.096035   -84.249286     14266178 
  260000    299.20123   -184346.86    1615.0208   -182731.84    1006.9915    133.65215          106   -79.500482   -69.620355     14266178 
  265000    300.50926    -184341.6    1622.0812   -182719.52    1006.9915    133.65215          106   -99.936971   -84.080402     14266178 
  270000    300.31812   -184330.46    1621.0495   -182709.41    1006.9915    133.65215          106   -125.51061   -97.291114     14266178 
  275000    300.29855   -184330.05    1620.9438    -182709.1    1006.9915    133.65215          106   -100.46215   -83.200483     14266178 
  280000    299.72232   -184335.44    1617.8335    -182717.6    1006.9915    133.65215          106   -92.075315   -101.90739     14266178 
  285000    299.73885   -184347.51    1617.9227   -182729.59    1006.9915    133.65215          106   -93.608811   -95.311938     14266178 
  290000    299.64788    -184348.8    1617.4317   -182731.36    1006.9915    133.65215          106   -91.993776   -82.004292     14266178 
  295000    299.89658   -184341.27    1618.7741   -182722.49    1006.9915    133.65215          106   -98.490472   -87.525073     14266178 
  300000    299.70828   -184331.27    1617.7577   -182713.51    1006.9915    133.65215          106   -119.62233   -97.953929     14266178 
  305000    300.05453   -184327.94    1619.6266   -182708.31    1006.9915    133.65215          106   -98.718911   -90.354973     14266178 
  310000    300.06276   -184330.72    1619.6711   -182711.05    1006.9915    133.65215          106   -98.328741   -99.938358     14266178 
  315000    299.31273   -184344.33    1615.6226   -182728.71    1006.9915    133.65215          106    -92.54125   -76.950256     14266178 
  320000    298.89774   -184345.68    1613.3825    -182732.3    1006.9915    133.65215          106   -95.094808   -74.447254     14266178 
  325000    300.02414   -184341.03    1619.4626   -182721.56    1006.9915    133.65215          106   -76.268807     -75.7121     14266178 
  330000    302.00926   -184343.36    1630.1779   -182713.18    1006.9915    133.65215          106   -92.144577   -73.491006     14266178 
  335000    302.47502   -184342.39    1632.6919    -182709.7    1006.9915    133.65215          106   -96.402704   -72.877767     14266178 
  340000    300.27554   -184333.57    1620.8196   -182712.75    1006.9915    133.65215          106   -100.86719   -84.034505     14266178 
  345000    298.89138   -184345.08    1613.3482   -182731.73    1006.9915    133.65215          106   -99.868671     -107.637     14266178 
  350000    298.00436   -184339.83    1608.5603   -182731.27    1006.9915    133.65215          106   -108.64244   -108.34823     14266178 
  355000    298.68068   -184332.48    1612.2109   -182720.27    1006.9915    133.65215          106   -96.895307   -90.801996     14266178 
  360000    302.13943   -184342.96    1630.8805   -182712.08    1006.9915    133.65215          106   -92.609449   -96.382094     14266178 
  365000    300.92815   -184334.91    1624.3423   -182710.57    1006.9915    133.65215          106   -90.994918   -95.349571     14266178 
  370000    298.63621   -184330.58    1611.9709   -182718.61    1006.9915    133.65215          106   -95.134948   -104.76414     14266178 
  375000    298.76535   -184346.18     1612.668   -182733.51    1006.9915    133.65215          106    -80.54434   -92.847879     14266178 
  380000    298.35453   -184332.65    1610.4504    -182722.2    1006.9915    133.65215          106   -108.65614   -87.649572     14266178 
  385000    300.83223   -184336.31    1623.8245   -182712.49    1006.9915    133.65215          106    -115.6104   -87.997043     14266178 
  390000    299.90581    -184328.7    1618.8239   -182709.87    1006.9915    133.65215          106     -99.7339   -87.911807     14266178 
  395000    299.99268   -184329.78    1619.2928   -182710.49    1006.9915    133.65215          106   -103.75669   -82.178473     14266178 
  400000    299.24024   -184335.04    1615.2313   -182719.81    1006.9915    133.65215          106    -105.1416   -97.215948     14266178 
  405000    298.82534   -184346.65    1612.9918   -182733.66    1006.9915    133.65215          106   -90.117219   -77.430094     14266178 
  410000    300.95151    -184350.5    1624.4683   -182726.04    1006.9915    133.65215          106    -78.88016   -68.358857     14266178 
  415000    299.89978    -184334.1    1618.7914   -182715.31    1006.9915    133.65215          106   -95.241777   -94.780001     14266178 
  420000    301.33943   -184337.03    1626.5623   -182710.46    1006.9915    133.65215          106   -98.479396   -81.956412     14266178 
  425000    300.85255   -184335.16    1623.9342   -182711.22    1006.9915    133.65215          106   -106.91103   -101.22515     14266178 
  430000    297.73633   -184328.61    1607.1135    -182721.5    1006.9915    133.65215          106   -108.13572   -124.86616     14266178 
  435000    298.36105   -184345.44    1610.4856   -182734.96    1006.9915    133.65215          106   -112.56329   -95.151679     14266178 
  440000     299.0584   -184338.66    1614.2498   -182724.41    1006.9915    133.65215          106   -105.30952   -96.969542     14266178 
  445000    298.93368   -184326.16    1613.5766   -182712.58    1006.9915    133.65215          106   -95.835449   -103.10718     14266178 
  450000    301.07395   -184334.98    1625.1293   -182709.85    1006.9915    133.65215          106   -116.15096   -102.66424     14266178 
  455000    300.83397   -184340.06    1623.8339   -182716.22    1006.9915    133.65215          106   -84.752349   -94.981365     14266178 
  460000    298.60882   -184343.81    1611.8231   -182731.99    1006.9915    133.65215          106   -109.79007   -85.700926     14266178 
  465000    299.19418   -184343.78    1614.9827   -182728.79    1006.9915    133.65215          106   -100.42772   -91.380871     14266178 
  470000    299.11061   -184331.12    1614.5316   -182716.59    1006.9915    133.65215          106   -91.379276   -101.71663     14266178 
  475000    299.45733    -184326.1    1616.4031    -182709.7    1006.9915    133.65215          106   -97.645103    -101.8699     14266178 
  480000    301.87304    -184338.4    1629.4425   -182708.96    1006.9915    133.65215          106   -115.94855    -129.6754     14266178 
  485000    300.20806   -184345.43    1620.4554   -182724.98    1006.9915    133.65215          106   -82.201246    -84.21593     14266178 
  490000    298.51231    -184345.2    1611.3021   -182733.89    1006.9915    133.65215          106   -99.980655    -79.34432     14266178 
  495000    298.36261   -184334.88    1610.4941   -182724.39    1006.9915    133.65215          106    -103.7804   -92.812625     14266178 
  500000    301.10556   -184339.71    1625.2999   -182714.41    1006.9915    133.65215          106   -114.97105   -102.36981     14266178 
  505000    301.95551   -184338.85    1629.8877   -182708.96    1006.9915    133.65215          106   -100.94045    -92.21131     14266178 
  510000    299.10067   -184325.48    1614.4779      -182711    1006.9915    133.65215          106   -101.77714   -80.081255     14266178 
  515000    299.03563   -184343.03    1614.1269    -182728.9    1006.9915    133.65215          106   -101.11831   -96.535197     14266178 
  520000    297.50145   -184336.59    1605.8457   -182730.75    1006.9915    133.65215          106   -94.660335   -86.913917     14266178 
  525000    299.98518   -184337.36    1619.2523   -182718.11    1006.9915    133.65215          106    -94.71013     -89.1092     14266178 
  530000    300.39816   -184332.71    1621.4815   -182711.23    1006.9915    133.65215          106   -107.60747   -99.404595     14266178 
  535000    298.81572   -184324.59    1612.9398   -182711.65    1006.9915    133.65215          106   -133.91782   -112.04339     14266178 
  540000    298.57975   -184335.96    1611.6662   -182724.29    1006.9915    133.65215          106    -112.1396   -96.053738     14266178 
  545000    298.84247   -184344.57    1613.0843   -182731.49    1006.9915    133.65215          106   -104.98493   -92.764464     14266178 
  550000     298.5242   -184337.81    1611.3663   -182726.44    1006.9915    133.65215          106   -99.208373   -98.897557     14266178 
  555000    299.47348   -184330.02    1616.4903   -182713.53    1006.9915    133.65215          106   -108.85818   -104.72107     14266178 
  560000    301.39239   -184338.97    1626.8481   -182712.12    1006.9915    133.65215          106   -99.829774   -104.99171     14266178 
  565000    300.70262   -184342.32    1623.1249   -182719.19    1006.9915    133.65215          106   -88.927731   -91.224907     14266178 
  570000    299.02244   -184347.88    1614.0557   -182733.82    1006.9915    133.65215          106   -85.705192   -80.173338     14266178 
  575000    298.37844   -184334.15    1610.5795   -182723.57    1006.9915    133.65215          106   -88.969151   -87.630201     14266178 
  580000      300.946    -184337.7    1624.4386   -182713.27    1006.9915    133.65215          106   -116.60023   -103.10335     14266178 
  585000    301.40046   -184336.73    1626.8917   -182709.84    1006.9915    133.65215          106   -105.06992   -96.241537     14266178 
  590000    302.34681   -184345.89    1631.9998   -182713.89    1006.9915    133.65215          106   -97.243439   -109.45846     14266178 
  595000    298.51558   -184341.27    1611.3198   -182729.95    1006.9915    133.65215          106    -110.8169    -100.6033     14266178 
  600000    298.61299   -184344.08    1611.8456   -182732.23    1006.9915    133.65215          106   -84.923192   -99.245589     14266178 
  605000    298.03333   -184332.35    1608.7167   -182723.63    1006.9915    133.65215          106   -121.75936   -78.835639     14266178 
  610000    301.40293    -184339.3     1626.905    -182712.4    1006.9915    133.65215          106   -92.634787   -80.569043     14266178 
  615000    299.39833   -184326.22    1616.0846   -182710.14    1006.9915    133.65215          106    -118.5134   -115.33274     14266178 
  620000    299.43486   -184332.59    1616.2818   -182716.31    1006.9915    133.65215          106   -129.69142   -103.92672     14266178 
  625000    299.66394   -184347.34    1617.5184   -182729.82    1006.9915    133.65215          106   -102.42147   -94.882436     14266178 
  630000    297.72114   -184337.93    1607.0315    -182730.9    1006.9915    133.65215          106   -89.328274     -96.8951     14266178 
  635000    298.58151   -184331.63    1611.6756   -182719.95    1006.9915    133.65215          106   -96.408429   -87.603464     14266178 
  640000     300.9299    -184338.4    1624.3517   -182714.05    1006.9915    133.65215          106   -111.27887   -89.543737     14266178 
  645000    300.02055   -184330.65    1619.4433   -182711.21    1006.9915    133.65215          106   -107.09959   -86.023971     14266178 
  650000    300.10937   -184336.32    1619.9227   -182716.39    1006.9915    133.65215          106   -100.88924   -93.858891     14266178 
  655000    299.11887   -184347.86    1614.5762   -182733.28    1006.9915    133.65215          106   -88.414333   -118.55832     14266178 
  660000     298.3183   -184339.61    1610.2549   -182729.35    1006.9915    133.65215          106   -108.59289   -101.28789     14266178 
  665000    299.82897   -184334.25    1618.4092   -182715.84    1006.9915    133.65215          106   -104.39969   -119.77394     14266178 
  670000    300.41652   -184332.02    1621.5806   -182710.44    1006.9915    133.65215          106   -104.42568   -96.332849     14266178 
  675000     300.8283   -184336.02    1623.8033   -182712.21    1006.9915    133.65215          106   -95.468796   -80.994149     14266178 
  680000    297.24417   -184330.53    1604.4569   -182726.07    1006.9915    133.65215          106   -86.532316   -92.722489     14266178 
  685000    297.82862   -184339.79    1607.6117   -182732.18    1006.9915    133.65215          106   -109.59752   -119.08791     14266178 
  690000    300.06116   -184343.42    1619.6624   -182723.76    1006.9915    133.65215          106   -112.36789   -106.30294     14266178 
  695000    300.60017   -184335.88    1622.5719   -182713.31    1006.9915    133.65215          106   -92.285111   -80.340488     14266178 
  700000    301.33803   -184334.53    1626.5547   -182707.98    1006.9915    133.65215          106   -110.12403    -90.24648     14266178 
  705000    300.61129   -184332.76    1622.6319   -182710.13    1006.9915    133.65215          106   -86.007862   -85.388916     14266178 
  710000    298.15008   -184338.35    1609.3469      -182729    1006.9915    133.65215          106   -92.633347   -76.214672     14266178 
  715000    299.54496    -184350.3    1616.8761   -182733.43    1006.9915    133.65215          106   -109.26147   -91.923289     14266178 
  720000     299.9275   -184338.47     1618.941   -182719.53    1006.9915    133.65215          106   -111.93721   -90.178569     14266178 
  725000    299.67407   -184328.99     1617.573   -182711.41    1006.9915    133.65215          106   -124.55231   -96.907985     14266178 
  730000    301.15863   -184335.29    1625.5863    -182709.7    1006.9915    133.65215          106   -99.526755    -89.31251     14266178 
  735000    298.82309   -184332.55    1612.9796   -182719.57    1006.9915    133.65215          106   -122.12876   -86.082722     14266178 
  740000     300.3293   -184356.59    1621.1098   -182735.48    1006.9915    133.65215          106   -102.94074   -116.99441     14266178 
  745000    298.62441   -184337.12    1611.9072   -182725.22    1006.9915    133.65215          106   -92.747299   -111.06231     14266178 
  750000    300.74202   -184338.41    1623.3376   -182715.07    1006.9915    133.65215          106   -105.76696   -92.982955     14266178 
  755000    301.99693   -184340.52    1630.1113   -182710.41    1006.9915    133.65215          106   -96.368425   -107.71297     14266178 
  760000    300.46774   -184333.82    1621.8571   -182711.96    1006.9915    133.65215          106    -114.4406   -109.72762     14266178 
  765000    298.02384   -184337.33    1608.6655   -182728.66    1006.9915    133.65215          106   -92.755648   -103.64354     14266178 
  770000    298.44935   -184342.59    1610.9622   -182731.63    1006.9915    133.65215          106   -114.81013   -86.326948     14266178 
  775000    298.70759   -184335.83    1612.3562   -182723.47    1006.9915    133.65215          106   -108.18263   -98.208699     14266178 
  780000    299.79056   -184332.44    1618.2018   -182714.24    1006.9915    133.65215          106   -91.514339   -93.487571     14266178 
  785000    300.07912   -184329.89    1619.7594   -182710.13    1006.9915    133.65215          106   -101.97977   -82.047049     14266178 
  790000    300.67605   -184337.85    1622.9815   -182714.87    1006.9915    133.65215          106   -90.226475   -87.621493     14266178 
  795000    299.15207   -184343.58    1614.7554   -182728.82    1006.9915    133.65215          106   -111.82707   -82.267146     14266178 
  800000    298.35969   -184342.44    1610.4783   -182731.96    1006.9915    133.65215          106   -101.08398   -88.308602     14266178 
  805000    298.97713   -184334.35    1613.8111   -182720.54    1006.9915    133.65215          106   -99.701372   -85.645216     14266178 
  810000    301.40121   -184339.29    1626.8958   -182712.39    1006.9915    133.65215          106   -86.446268   -89.951984     14266178 
  815000    299.81946   -184327.69    1618.3578   -182709.33    1006.9915    133.65215          106   -81.893864   -99.974282     14266178 
  820000    300.08422   -184332.88    1619.7869    -182713.1    1006.9915    133.65215          106   -92.229423   -88.230102     14266178 
  825000    299.22157   -184344.04    1615.1305   -182728.91    1006.9915    133.65215          106    -106.3065   -84.174987     14266178 
  830000    297.13474   -184334.76    1603.8663   -182730.89    1006.9915    133.65215          106   -102.02188   -86.369293     14266178 
  835000    299.03011   -184336.87    1614.0971   -182722.77    1006.9915    133.65215          106   -106.41065   -75.893597     14266178 
  840000    299.36583   -184330.51    1615.9092    -182714.6    1006.9915    133.65215          106    -109.0395   -72.260823     14266178 
  845000    301.00094   -184335.49    1624.7352   -182710.76    1006.9915    133.65215          106   -94.188895   -70.857206     14266178 
  850000    300.10403   -184335.11    1619.8939   -182715.22    1006.9915    133.65215          106   -110.21847   -79.234641     14266178 
  855000    298.57275   -184342.55    1611.6283   -182730.92    1006.9915    133.65215          106   -118.10112   -85.303967     14266178 
  860000     299.2419   -184345.76    1615.2402   -182730.52    1006.9915    133.65215          106   -117.52975   -91.405896     14266178 
  865000    300.15595   -184340.64    1620.1741   -182720.46    1006.9915    133.65215          106   -124.08115   -104.33517     14266178 
  870000    299.44109   -184328.59    1616.3155   -182712.27    1006.9915    133.65215          106   -122.22976   -112.36399     14266178 
  875000    300.60884   -184333.45    1622.6187   -182710.83    1006.9915    133.65215          106   -118.57815   -101.62729     14266178 
  880000    299.78769   -184335.87    1618.1863   -182717.68    1006.9915    133.65215          106   -96.962473   -86.098632     14266178 
  885000    298.75932   -184343.17    1612.6354   -182730.53    1006.9915    133.65215          106   -94.196606   -98.329662     14266178 
  890000    300.00077   -184345.02    1619.3365   -182725.68    1006.9915    133.65215          106   -95.001274    -107.5961     14266178 
  895000    300.09683   -184333.71     1619.855   -182713.86    1006.9915    133.65215          106   -111.72013    -96.84291     14266178 
  900000    302.13661    -184338.7    1630.8653   -182707.84    1006.9915    133.65215          106    -95.64031   -96.924275     14266178 
  905000    299.60359   -184332.82    1617.1926   -182715.63    1006.9915    133.65215          106   -105.51823   -108.71886     14266178 
  910000     299.2107   -184341.83    1615.0719   -182726.75    1006.9915    133.65215          106    -84.94009   -95.795118     14266178 
  915000    298.42316   -184343.42    1610.8209    -182732.6    1006.9915    133.65215          106    -77.35033   -67.697524     14266178 
  920000    299.56594   -184341.78    1616.9894   -182724.79    1006.9915    133.65215          106    -77.08743   -72.013848     14266178 
  925000    299.54502   -184328.73    1616.8764   -182711.85    1006.9915    133.65215          106   -87.100442   -78.641784     14266178 
  930000    302.14249   -184339.61     1630.897   -182708.71    1006.9915    133.65215          106   -105.66267   -86.856605     14266178 
  935000    298.68442    -184333.3    1612.2311   -182721.06    1006.9915    133.65215          106   -101.66046   -99.924336     14266178 
  940000    299.00102   -184347.57      1613.94   -182733.63    1006.9915    133.65215          106   -109.74685   -101.16868     14266178 
  945000    298.54128   -184337.69    1611.4585   -182726.23    1006.9915    133.65215          106   -110.82692    -110.7884     14266178 
  950000    300.59001   -184336.31     1622.517   -182713.79    1006.9915    133.65215          106   -112.33906   -99.014377     14266178 
  955000    299.79197   -184327.43    1618.2094   -182709.22    1006.9915    133.65215          106   -97.234378    -100.0432     14266178 
  960000    300.41194   -184335.59    1621.5559   -182714.03    1006.9915    133.65215          106   -102.77314   -120.00815     14266178 
  965000    297.83146   -184338.66     1607.627   -182731.03    1006.9915    133.65215          106   -96.833653   -110.00658     14266178 
  970000    298.94304   -184344.65    1613.6271   -182731.02    1006.9915    133.65215          106   -121.71417   -114.13893     14266178 
  975000     298.7514   -184334.15    1612.5926   -182721.55    1006.9915    133.65215          106   -107.30329    -108.9283     14266178 
  980000    300.43256   -184334.48    1621.6672   -182712.81    1006.9915    133.65215          106   -105.37204   -103.16109     14266178 
  985000    299.56361   -184327.22    1616.9768   -182710.24    1006.9915    133.65215          106   -104.25123   -96.259602     14266178 
  990000    300.56432   -184339.28    1622.3784    -182716.9    1006.9915    133.65215          106   -113.75439   -92.906947     14266178 
  995000    299.89677   -184351.86    1618.7751   -182733.09    1006.9915    133.65215          106   -87.437039   -93.179889     14266178 
 1000000    297.39597   -184336.12    1605.2764   -182730.85    1006.9915    133.65215          106   -94.900615     -98.2153     14266178 
 1004498     299.5623   -184330.32    1616.9697   -182713.35    1006.9915    133.65215          106   -89.349901   -99.823051     14266178 
Loop time of 6496.27 on 28 procs for 1000000 steps with 41760 atoms

Performance: 6.650 ns/day, 3.609 hours/ns, 153.934 timesteps/s
99.8% CPU use with 28 MPI tasks x no OpenMP threads

MPI task timing breakdown:
Section |  min time  |  avg time  |  max time  |%varavg| %total
---------------------------------------------------------------
Pair    | 5914.2     | 6018.5     | 6139.7     |  83.9 | 92.64
Neigh   | 0.89141    | 0.91061    | 0.93416    |   1.4 |  0.01
Comm    | 80.618     | 183        | 297.23     | 454.4 |  2.82
Output  | 0.10123    | 0.10149    | 0.10488    |   0.2 |  0.00
Modify  | 233.04     | 276.64     | 326.99     | 186.0 |  4.26
Other   |            | 17.16      |            |       |  0.26

Nlocal:    1491.43 ave 1512 max 1456 min
Histogram: 1 2 1 1 1 4 4 5 7 2
Nghost:    598.5 ave 651 max 547 min
Histogram: 1 7 1 3 4 0 3 2 5 2
Neighs:    0 ave 0 max 0 min
Histogram: 28 0 0 0 0 0 0 0 0 0
FullNghs:  49648 ave 50513 max 48538 min
Histogram: 1 2 1 3 2 5 4 8 0 2

Total # of neighbors = 1390144
Ave neighs/atom = 33.2889
Neighbor list builds = 487
Dangerous builds = 0
unfix           1
fix             2 all nve
run             1000000
Per MPI rank memory allocation (min/avg/max) = 4.156 | 4.157 | 4.157 Mbytes
Step Temp PotEng KinEng TotEng Lx Ly Lz Pxx Pyy Volume 
 1004498     299.5623   -184330.32    1616.9697   -182713.35    1006.9915    133.65215          106   -89.349901   -99.823051     14266178 
 1005000    300.29001   -184334.25    1620.8977   -182713.35    1006.9915    133.65215          106   -113.82401   -103.53602     14266178 
 1010000    299.36188   -184329.24    1615.8879   -182713.35    1006.9915    133.65215          106   -98.389029   -104.01436     14266178 
 1015000    299.30576   -184328.94     1615.585   -182713.35    1006.9915    133.65215          106   -105.30964   -91.928634     14266178 
 1020000    299.37098   -184329.29     1615.937   -182713.35    1006.9915    133.65215          106   -108.54317   -98.993789     14266178 
 1025000    300.87526   -184337.41    1624.0568   -182713.35    1006.9915    133.65215          106   -84.636419   -91.338192     14266178 
 1030000    300.64762   -184336.18    1622.8281   -182713.35    1006.9915    133.65215          106   -87.407898   -91.003116     14266178 
 1035000    298.91906   -184326.85    1613.4977   -182713.35    1006.9915    133.65215          106   -114.98403    -108.0336     14266178 
 1040000    300.02085    -184332.8    1619.4448   -182713.35    1006.9915    133.65215          106   -104.16884   -111.95109     14266178 
 1045000    300.80615   -184337.04    1623.6837   -182713.35    1006.9915    133.65215          106   -101.36431   -108.20029     14266178 
 1050000    300.88542   -184337.46    1624.1116   -182713.35    1006.9915    133.65215          106    -122.2262   -100.99522     14266178 
 1055000    301.02709   -184338.23    1624.8763   -182713.35    1006.9915    133.65215          106   -89.883855   -89.319076     14266178 
 1060000    299.76393   -184331.41    1618.0581   -182713.35    1006.9915    133.65215          106   -80.034316    -79.51354     14266178 
 1065000    299.15274   -184328.11     1614.759   -182713.35    1006.9915    133.65215          106   -97.764465   -98.635579     14266178 
 1070000    301.66386   -184341.67    1628.3135   -182713.35    1006.9915    133.65215          106   -95.167462   -98.754972     14266178 
 1075000    301.76462   -184342.21    1628.8573   -182713.35    1006.9915    133.65215          106   -116.32904   -127.50806     14266178 
 1080000    300.35377   -184334.59    1621.2419   -182713.35    1006.9915    133.65215          106   -105.37141   -95.640898     14266178 
 1085000    300.62895   -184336.08    1622.7273   -182713.35    1006.9915    133.65215          106   -97.474645   -109.82508     14266178 
 1090000     300.4796   -184335.27    1621.9211   -182713.35    1006.9915    133.65215          106   -113.86571   -82.548731     14266178 
 1095000    301.32292   -184339.83    1626.4732   -182713.35    1006.9915    133.65215          106   -90.497751    -67.10621     14266178 
 1100000    300.72062   -184336.57    1623.2221   -182713.35    1006.9915    133.65215          106   -105.97029   -91.998054     14266178 
 1105000    300.96767   -184337.91    1624.5556   -182713.35    1006.9915    133.65215          106   -112.99383   -89.444131     14266178 
 1110000    299.71791   -184331.16    1617.8097   -182713.35    1006.9915    133.65215          106    -102.2632   -115.48481     14266178 
 1115000    300.72569    -184336.6    1623.2494   -182713.35    1006.9915    133.65215          106   -113.33037   -93.043849     14266178 
 1120000    300.39893   -184334.84    1621.4857   -182713.35    1006.9915    133.65215          106    -96.77951   -77.628798     14266178 
 1125000    301.02358   -184338.21    1624.8574   -182713.35    1006.9915    133.65215          106   -101.38142   -74.111388     14266178 
 1130000    300.33318   -184334.48    1621.1307   -182713.35    1006.9915    133.65215          106   -101.48422   -82.663601     14266178 
 1135000    300.17636   -184333.64    1620.2843   -182713.35    1006.9915    133.65215          106   -91.364339   -84.815526     14266178 
 1140000    300.39594   -184334.82    1621.4695   -182713.35    1006.9915    133.65215          106   -92.352536   -90.116504     14266178 
 1145000    300.07765    -184333.1    1619.7514   -182713.35    1006.9915    133.65215          106   -80.370823   -66.981508     14266178 
 1150000    300.97386   -184337.94     1624.589   -182713.35    1006.9915    133.65215          106    -96.08991   -101.65035     14266178 
 1155000    300.55844    -184335.7    1622.3467   -182713.35    1006.9915    133.65215          106   -105.42232   -109.41046     14266178 
 1160000    299.29042   -184328.85    1615.5022   -182713.35    1006.9915    133.65215          106   -108.45831   -85.823582     14266178 
 1165000    299.03917    -184327.5     1614.146   -182713.35    1006.9915    133.65215          106   -99.591815    -113.1444     14266178 
 1170000     299.7042   -184331.09    1617.7357   -182713.35    1006.9915    133.65215          106   -97.740837   -98.573637     14266178 
 1175000    299.73201   -184331.24    1617.8858   -182713.35    1006.9915    133.65215          106   -116.23378   -103.08954     14266178 
 1180000      299.802   -184331.62    1618.2636   -182713.35    1006.9915    133.65215          106   -104.33665   -98.642297     14266178 
 1185000    298.68901   -184325.61    1612.2559   -182713.35    1006.9915    133.65215          106   -105.44352   -99.108918     14266178 
 1190000    300.12169   -184333.34    1619.9892   -182713.35    1006.9915    133.65215          106   -112.04596   -111.19241     14266178 
 1195000    299.87334      -184332    1618.6486   -182713.35    1006.9915    133.65215          106   -111.28982   -101.22728     14266178 
 1200000    300.48304   -184335.29    1621.9397   -182713.35    1006.9915    133.65215          106   -114.18848   -92.143608     14266178 
 1205000     300.5943   -184335.89    1622.5402   -182713.35    1006.9915    133.65215          106   -116.47377   -105.43991     14266178 
 1210000    299.37794   -184329.33    1615.9746   -182713.35    1006.9915    133.65215          106   -92.857714   -110.68446     14266178 
 1215000    299.40547   -184329.48    1616.1232   -182713.35    1006.9915    133.65215          106   -100.35355    -106.5225     14266178 
 1220000    299.89442   -184332.12    1618.7624   -182713.35    1006.9915    133.65215          106   -97.094969   -98.854248     14266178 
 1225000      300.031   -184332.85    1619.4997   -182713.35    1006.9915    133.65215          106   -93.260302   -81.301022     14266178 
 1230000     300.0818   -184333.13    1619.7739   -182713.35    1006.9915    133.65215          106   -110.93144   -116.38167     14266178 
 1235000    301.01107   -184338.14    1624.7898   -182713.35    1006.9915    133.65215          106   -97.811193   -93.597404     14266178 
 1240000    300.84788   -184337.26     1623.909   -182713.35    1006.9915    133.65215          106   -94.937367   -92.497543     14266178 
 1245000    300.25893   -184334.08      1620.73   -182713.35    1006.9915    133.65215          106    -92.95508    -107.7422     14266178 
 1250000    300.54128   -184335.61     1622.254   -182713.35    1006.9915    133.65215          106   -86.493246   -108.99825     14266178 
 1255000    301.57876   -184341.21    1627.8541   -182713.35    1006.9915    133.65215          106   -94.799261   -103.65824     14266178 
 1260000    302.17161   -184344.41    1631.0542   -182713.35    1006.9915    133.65215          106    -86.18067   -81.054523     14266178 
 1265000    300.43729   -184335.05    1621.6927   -182713.35    1006.9915    133.65215          106   -96.808442   -87.361062     14266178 
 1270000    297.98467   -184321.81     1608.454   -182713.35    1006.9915    133.65215          106   -115.06431   -92.051689     14266178 
 1275000     300.5915   -184335.88    1622.5251   -182713.35    1006.9915    133.65215          106   -111.63482   -96.145208     14266178 
 1280000    300.71613   -184336.55    1623.1978   -182713.35    1006.9915    133.65215          106   -101.42445   -91.152049     14266178 
 1285000    300.74096   -184336.68    1623.3319   -182713.35    1006.9915    133.65215          106   -96.479083   -96.666798     14266178 
 1290000    299.82004   -184331.71    1618.3609   -182713.35    1006.9915    133.65215          106   -105.70644   -98.269231     14266178 
 1295000     300.3274   -184334.45    1621.0995   -182713.35    1006.9915    133.65215          106    -100.7745   -96.092291     14266178 
 1300000    300.42827      -184335     1621.644   -182713.35    1006.9915    133.65215          106   -113.27674   -108.87857     14266178 
 1305000    299.75688   -184331.37      1618.02   -182713.35    1006.9915    133.65215          106   -107.56976   -98.465016     14266178 
 1310000    299.50729   -184330.02    1616.6728   -182713.35    1006.9915    133.65215          106   -126.65336   -90.976814     14266178 
 1315000    300.18353   -184333.68     1620.323   -182713.35    1006.9915    133.65215          106   -113.97685   -104.18676     14266178 
 1320000    301.30998   -184339.76    1626.4033   -182713.35    1006.9915    133.65215          106   -98.552001    -89.34114     14266178 
 1325000    301.13034   -184338.79    1625.4337   -182713.35    1006.9915    133.65215          106   -95.835615   -94.313047     14266178 
 1330000    300.40262   -184334.86    1621.5056   -182713.35    1006.9915    133.65215          106   -80.550215   -106.23677     14266178 
 1335000    299.47636   -184329.86    1616.5058   -182713.35    1006.9915    133.65215          106   -92.912814   -85.198442     14266178 
 1340000    300.46689    -184335.2    1621.8525   -182713.35    1006.9915    133.65215          106   -104.02155   -84.629443     14266178 
 1345000    300.01284   -184332.75    1619.4016   -182713.35    1006.9915    133.65215          106   -88.413862   -90.549911     14266178 
 1350000    300.92161   -184337.66     1624.307   -182713.35    1006.9915    133.65215          106   -76.776832   -96.112403     14266178 
 1355000    298.71736   -184325.76    1612.4089   -182713.35    1006.9915    133.65215          106   -92.091945   -91.828527     14266178 
 1360000    299.88331   -184332.06    1618.7025   -182713.35    1006.9915    133.65215          106   -95.162213   -109.55629     14266178 
 1365000    300.97866   -184337.97    1624.6149   -182713.35    1006.9915    133.65215          106   -107.57918   -86.112709     14266178 
 1370000    298.63282    -184325.3    1611.9526   -182713.35    1006.9915    133.65215          106   -103.90339   -107.92422     14266178 
 1375000    300.76361   -184336.81    1623.4541   -182713.35    1006.9915    133.65215          106   -110.04577   -87.308057     14266178 
 1380000    300.55679   -184335.69    1622.3377   -182713.35    1006.9915    133.65215          106   -99.623221   -89.669831     14266178 
 1385000     300.4201   -184334.95    1621.5999   -182713.35    1006.9915    133.65215          106   -84.024921   -87.712639     14266178 
 1390000     299.7871   -184331.54    1618.1832   -182713.35    1006.9915    133.65215          106   -91.967782   -93.193905     14266178 
 1395000    299.51137   -184330.05    1616.6948   -182713.35    1006.9915    133.65215          106   -105.35635   -81.271443     14266178 
 1400000    298.89984   -184326.75    1613.3939   -182713.35    1006.9915    133.65215          106   -90.950346   -86.605706     14266178 
 1405000    299.20993   -184328.42    1615.0677   -182713.35    1006.9915    133.65215          106   -97.735174   -77.264967     14266178 
 1410000    300.25442   -184334.06    1620.7056   -182713.35    1006.9915    133.65215          106   -86.754097   -86.340312     14266178 
 1415000    300.69543   -184336.44    1623.0861   -182713.35    1006.9915    133.65215          106   -99.645506   -88.589807     14266178 
 1420000    301.13874   -184338.83     1625.479   -182713.35    1006.9915    133.65215          106   -91.298462   -92.559089     14266178 
 1425000    300.65383   -184336.21    1622.8615   -182713.35    1006.9915    133.65215          106   -92.543981   -91.359544     14266178 
 1430000    301.54723   -184341.04    1627.6839   -182713.35    1006.9915    133.65215          106   -94.944654   -95.949817     14266178 
 1435000     300.6831   -184336.37    1623.0195   -182713.35    1006.9915    133.65215          106   -96.015745   -84.982229     14266178 
 1440000    300.21095   -184333.82     1620.471   -182713.35    1006.9915    133.65215          106   -90.510032   -80.934705     14266178 
 1445000    300.76906   -184336.84    1623.4835   -182713.35    1006.9915    133.65215          106    -100.1713   -95.429623     14266178 
 1450000    300.74052   -184336.68    1623.3295   -182713.35    1006.9915    133.65215          106   -84.336498   -92.567455     14266178 
 1455000     301.2129   -184339.23    1625.8793   -182713.35    1006.9915    133.65215          106   -105.11529    -84.66376     14266178 
 1460000    299.17589   -184328.24    1614.8839   -182713.35    1006.9915    133.65215          106   -94.669672   -103.41748     14266178 
 1465000    300.11633   -184333.31    1619.9603   -182713.35    1006.9915    133.65215          106   -109.18846   -97.838378     14266178 
 1470000    300.63132   -184336.09      1622.74   -182713.35    1006.9915    133.65215          106   -77.846273   -87.957495     14266178 
 1475000    300.39711   -184334.83    1621.4758   -182713.35    1006.9915    133.65215          106    -83.56213   -99.959836     14266178 
 1480000    300.55164   -184335.66    1622.3099   -182713.35    1006.9915    133.65215          106   -90.080805   -71.654521     14266178 
 1485000     300.4474    -184335.1    1621.7473   -182713.35    1006.9915    133.65215          106   -93.506275   -104.08449     14266178 
 1490000    299.99583   -184332.66    1619.3098   -182713.35    1006.9915    133.65215          106   -104.96254   -98.443482     14266178 
 1495000    298.60682   -184325.16    1611.8122   -182713.35    1006.9915    133.65215          106   -109.35229   -96.750109     14266178 
 1500000    299.26916   -184328.74    1615.3874   -182713.35    1006.9915    133.65215          106   -117.57323   -101.21369     14266178 
 1505000    298.47361   -184324.44    1611.0932   -182713.35    1006.9915    133.65215          106    -96.58273   -91.981356     14266178 
 1510000    300.36307   -184334.64    1621.2921   -182713.35    1006.9915    133.65215          106   -105.11456   -90.338723     14266178 
 1515000    300.24353      -184334    1620.6468   -182713.35    1006.9915    133.65215          106   -121.24467   -90.717513     14266178 
 1520000    300.27624   -184334.18    1620.8234   -182713.35    1006.9915    133.65215          106   -112.73732     -97.5046     14266178 
 1525000    300.57555   -184335.79     1622.439   -182713.35    1006.9915    133.65215          106   -112.87804   -105.41188     14266178 
 1530000    300.97791   -184337.96    1624.6108   -182713.35    1006.9915    133.65215          106   -131.43833   -122.91248     14266178 
 1535000     299.9639   -184332.49    1619.1374   -182713.35    1006.9915    133.65215          106   -126.59113   -102.01019     14266178 
 1540000     300.5253   -184335.52    1622.1678   -182713.35    1006.9915    133.65215          106   -104.80993   -108.97605     14266178 
 1545000    299.43323   -184329.63     1616.273   -182713.35    1006.9915    133.65215          106   -107.89758   -102.17421     14266178 
 1550000    299.32577   -184329.05     1615.693   -182713.35    1006.9915    133.65215          106   -109.48041   -91.246539     14266178 
 1555000    300.03726   -184332.89    1619.5334   -182713.35    1006.9915    133.65215          106   -101.20109   -95.832466     14266178 
 1560000    299.80213   -184331.62    1618.2642   -182713.35    1006.9915    133.65215          106   -117.03886   -108.55449     14266178 
 1565000    299.35767   -184329.22    1615.8651   -182713.35    1006.9915    133.65215          106   -98.187028     -116.625     14266178 
 1570000    299.62333   -184330.65    1617.2991   -182713.35    1006.9915    133.65215          106   -107.15559    -102.7522     14266178 
 1575000    301.08483   -184338.54     1625.188   -182713.35    1006.9915    133.65215          106   -81.767022   -95.237568     14266178 
 1580000    300.10378   -184333.25    1619.8925   -182713.35    1006.9915    133.65215          106   -106.59128   -86.260076     14266178 
 1585000    299.53552   -184330.18    1616.8252   -182713.35    1006.9915    133.65215          106   -103.75856   -116.29376     14266178 
 1590000    299.43404   -184329.63    1616.2774   -182713.35    1006.9915    133.65215          106     -117.117   -102.38279     14266178 
 1595000    300.49967   -184335.38    1622.0294   -182713.35    1006.9915    133.65215          106   -100.65754   -97.829332     14266178 
 1600000    300.27137   -184334.15    1620.7971   -182713.35    1006.9915    133.65215          106   -97.302344   -106.87593     14266178 
 1605000    297.82624   -184320.95    1607.5988   -182713.35    1006.9915    133.65215          106   -91.819771   -97.245063     14266178 
 1610000    301.23395   -184339.35    1625.9929   -182713.35    1006.9915    133.65215          106   -101.43321   -95.496651     14266178 
 1615000    300.83887   -184337.21    1623.8604   -182713.35    1006.9915    133.65215          106   -81.824274   -74.732449     14266178 
 1620000    301.98481    -184343.4    1630.0459   -182713.35    1006.9915    133.65215          106   -102.33548   -89.818013     14266178 
 1625000    301.12791   -184338.77    1625.4205   -182713.35    1006.9915    133.65215          106   -75.988316   -81.789079     14266178 
 1630000    298.96189   -184327.08    1613.7288   -182713.35    1006.9915    133.65215          106   -88.095233   -86.789273     14266178 
 1635000    300.49171   -184335.34    1621.9865   -182713.35    1006.9915    133.65215          106   -118.39182    -96.33418     14266178 
 1640000    300.25047   -184334.04    1620.6843   -182713.35    1006.9915    133.65215          106   -120.89546   -103.59325     14266178 
 1645000    299.83487   -184331.79     1618.441   -182713.35    1006.9915    133.65215          106     -98.8868   -107.60642     14266178 
 1650000    299.83832   -184331.81    1618.4596   -182713.35    1006.9915    133.65215          106   -97.065804   -77.602594     14266178 
 1655000    301.51314   -184340.85    1627.4999   -182713.35    1006.9915    133.65215          106   -93.571074   -91.694064     14266178 
 1660000    299.71596   -184331.15    1617.7991   -182713.35    1006.9915    133.65215          106   -92.891597   -94.207925     14266178 
 1665000    299.16106   -184328.16    1614.8039   -182713.35    1006.9915    133.65215          106   -99.763946   -92.939691     14266178 
 1670000     299.6746   -184330.93    1617.5759   -182713.35    1006.9915    133.65215          106   -104.01187   -90.595404     14266178 
 1675000     300.2135   -184333.84    1620.4847   -182713.35    1006.9915    133.65215          106   -109.02299   -95.999098     14266178 
 1680000    300.42809      -184335    1621.6431   -182713.35    1006.9915    133.65215          106   -116.90209   -72.165493     14266178 
 1685000    300.15976   -184333.55    1620.1947   -182713.35    1006.9915    133.65215          106   -92.952684    -79.98693     14266178 
 1690000    301.59005   -184341.27    1627.9151   -182713.35    1006.9915    133.65215          106   -111.87334   -105.17614     14266178 
 1695000    299.84127   -184331.83    1618.4755   -182713.35    1006.9915    133.65215          106   -94.349838   -88.069627     14266178 
 1700000    300.08388   -184333.14    1619.7851   -182713.35    1006.9915    133.65215          106   -87.298936   -86.676437     14266178 
 1705000    301.04123   -184338.31    1624.9526   -182713.35    1006.9915    133.65215          106   -85.924837   -87.041471     14266178 
 1710000    300.81491   -184337.08     1623.731   -182713.35    1006.9915    133.65215          106   -94.109737   -105.37439     14266178 
 1715000    299.80756   -184331.65    1618.2936   -182713.35    1006.9915    133.65215          106   -94.116327   -82.905511     14266178 
 1720000    300.92282   -184337.67    1624.3135   -182713.35    1006.9915    133.65215          106   -101.77631   -102.14116     14266178 
 1725000    300.13071   -184333.39    1620.0379   -182713.35    1006.9915    133.65215          106   -102.00797   -112.51601     14266178 
 1730000    300.86889   -184337.38    1624.0224   -182713.35    1006.9915    133.65215          106   -110.56692   -92.770812     14266178 
 1735000     300.9086   -184337.59    1624.2368   -182713.35    1006.9915    133.65215          106   -118.98096    -93.99039     14266178 
 1740000    300.50409   -184335.41    1622.0533   -182713.35    1006.9915    133.65215          106    -105.9439   -101.71661     14266178 
 1745000    298.31765    -184323.6    1610.2514   -182713.35    1006.9915    133.65215          106   -112.88479   -117.12707     14266178 
 1750000    299.00752   -184327.33    1613.9751   -182713.35    1006.9915    133.65215          106   -109.18013   -107.86697     14266178 
 1755000    299.56736   -184330.35     1616.997   -182713.35    1006.9915    133.65215          106   -117.22026   -96.359434     14266178 
 1760000    298.93886   -184326.96    1613.6045   -182713.35    1006.9915    133.65215          106   -130.04909   -106.03632     14266178 
 1765000    301.85522    -184342.7    1629.3464   -182713.35    1006.9915    133.65215          106    -95.16236   -91.204038     14266178 
 1770000     299.8822   -184332.05    1618.6965   -182713.35    1006.9915    133.65215          106   -108.94373   -96.517397     14266178 
 1775000    299.29276   -184328.87    1615.5148   -182713.35    1006.9915    133.65215          106   -126.66972    -104.8304     14266178 
 1780000    300.13659   -184333.42    1620.0696   -182713.35    1006.9915    133.65215          106   -116.01111   -106.31025     14266178 
 1785000      300.605   -184335.95    1622.5979   -182713.35    1006.9915    133.65215          106   -111.65601   -93.456399     14266178 
 1790000    300.47578   -184335.25    1621.9005   -182713.35    1006.9915    133.65215          106   -101.41594   -96.639892     14266178 
 1795000    300.73374   -184336.65    1623.2929   -182713.35    1006.9915    133.65215          106   -105.95276   -90.760262     14266178 
 1800000    302.16499   -184344.37    1631.0184   -182713.35    1006.9915    133.65215          106   -93.792291   -103.06494     14266178 
 1805000    300.93282   -184337.72    1624.3675   -182713.35    1006.9915    133.65215          106   -114.52335   -92.404181     14266178 
 1810000    299.13177      -184328    1614.6458   -182713.35    1006.9915    133.65215          106   -104.54106   -90.814429     14266178 
 1815000    300.82709   -184337.15    1623.7968   -182713.35    1006.9915    133.65215          106   -105.76908   -80.014563     14266178 
 1820000    300.29709   -184334.29     1620.936   -182713.35    1006.9915    133.65215          106   -84.715818   -88.869343     14266178 
 1825000    299.16229   -184328.16    1614.8105   -182713.35    1006.9915    133.65215          106   -96.400082   -82.770687     14266178 
 1830000    300.14039   -184333.44    1620.0901   -182713.35    1006.9915    133.65215          106   -88.222205   -75.529467     14266178 
 1835000     299.4591   -184329.77    1616.4127   -182713.35    1006.9915    133.65215          106   -110.84593   -88.486711     14266178 
 1840000    300.12855   -184333.38    1620.0262   -182713.35    1006.9915    133.65215          106   -101.07131   -101.15063     14266178 
 1845000     299.5021      -184330    1616.6447   -182713.35    1006.9915    133.65215          106   -99.847418     -103.842     14266178 
 1850000    299.57711    -184330.4    1617.0497   -182713.35    1006.9915    133.65215          106   -129.94776   -96.756584     14266178 
 1855000    300.67313   -184336.32    1622.9657   -182713.35    1006.9915    133.65215          106   -107.93804     -109.191     14266178 
 1860000    300.78473   -184336.92    1623.5681   -182713.35    1006.9915    133.65215          106   -102.14817    -95.05751     14266178 
 1865000    300.00268    -184332.7    1619.3468   -182713.35    1006.9915    133.65215          106    -105.2398   -93.422169     14266178 
 1870000    301.37439    -184340.1     1626.751   -182713.35    1006.9915    133.65215          106   -111.88405   -101.71637     14266178 
 1875000    300.92814    -184337.7    1624.3422   -182713.35    1006.9915    133.65215          106     -110.597   -89.293443     14266178 
 1880000    300.33432   -184334.49    1621.1369   -182713.35    1006.9915    133.65215          106   -120.71825   -98.157244     14266178 
 1885000    300.03544   -184332.87    1619.5236   -182713.35    1006.9915    133.65215          106   -129.11651   -99.917465     14266178 
 1890000    301.14186   -184338.85    1625.4958   -182713.35    1006.9915    133.65215          106   -104.25188   -104.59295     14266178 
 1895000    299.56422   -184330.33    1616.9801   -182713.35    1006.9915    133.65215          106   -84.925776   -97.954325     14266178 
 1900000    301.08475   -184338.54    1625.1875   -182713.35    1006.9915    133.65215          106   -93.139344    -93.68916     14266178 
 1905000    300.11515   -184333.31    1619.9539   -182713.35    1006.9915    133.65215          106   -100.05655   -99.367697     14266178 
 1910000    300.40491   -184334.87    1621.5179   -182713.35    1006.9915    133.65215          106    -85.15625   -104.72813     14266178 
 1915000    300.39183    -184334.8    1621.4473   -182713.35    1006.9915    133.65215          106   -97.372936   -95.747833     14266178 
 1920000    301.09309   -184338.59    1625.2326   -182713.35    1006.9915    133.65215          106   -86.095411    -94.82472     14266178 
 1925000    301.46404   -184340.59    1627.2349   -182713.35    1006.9915    133.65215          106   -80.658783    -104.6204     14266178 
 1930000    300.98477      -184338    1624.6479   -182713.35    1006.9915    133.65215          106   -89.543303   -95.628071     14266178 
 1935000    299.90717   -184332.18    1618.8312   -182713.35    1006.9915    133.65215          106   -85.775408   -106.45642     14266178 
 1940000    300.59641    -184335.9    1622.5516   -182713.35    1006.9915    133.65215          106   -100.73472   -81.808974     14266178 
 1945000    300.22083   -184333.88    1620.5243   -182713.35    1006.9915    133.65215          106   -99.260433   -79.801166     14266178 
 1950000    299.30258   -184328.92    1615.5678   -182713.35    1006.9915    133.65215          106   -109.12852   -91.132013     14266178 
 1955000    301.73717   -184342.06    1628.7092   -182713.35    1006.9915    133.65215          106   -112.99369   -102.61196     14266178 
 1960000    299.71723   -184331.16     1617.806   -182713.35    1006.9915    133.65215          106     -127.728   -93.403856     14266178 
 1965000    300.38086   -184334.74    1621.3881   -182713.35    1006.9915    133.65215          106   -111.43586   -85.056571     14266178 
 1970000    299.77478   -184331.47    1618.1166   -182713.35    1006.9915    133.65215          106   -108.77162   -86.665039     14266178 
 1975000    301.19258   -184339.12    1625.7696   -182713.35    1006.9915    133.65215          106    -104.8832   -92.939488     14266178 
 1980000    300.82427   -184337.13    1623.7816   -182713.35    1006.9915    133.65215          106   -93.009113   -97.728583     14266178 
 1985000    300.44066   -184335.06    1621.7109   -182713.35    1006.9915    133.65215          106   -95.732548   -96.268736     14266178 
 1990000    299.80812   -184331.65    1618.2966   -182713.35    1006.9915    133.65215          106   -99.836609   -98.541088     14266178 
 1995000    299.54858   -184330.25    1616.8957   -182713.35    1006.9915    133.65215          106   -107.13828   -97.005427     14266178 
 2000000    300.45539   -184335.14    1621.7904   -182713.35    1006.9915    133.65215          106    -123.9034   -100.64693     14266178 
 2004498    301.09247   -184338.58    1625.2292   -182713.35    1006.9915    133.65215          106   -121.37755   -99.485006     14266178 
Loop time of 6487.92 on 28 procs for 1000000 steps with 41760 atoms

Performance: 6.659 ns/day, 3.604 hours/ns, 154.133 timesteps/s
99.8% CPU use with 28 MPI tasks x no OpenMP threads

MPI task timing breakdown:
Section |  min time  |  avg time  |  max time  |%varavg| %total
---------------------------------------------------------------
Pair    | 5892       | 6020       | 6134.2     |  87.6 | 92.79
Neigh   | 0.90224    | 0.93578    | 0.96327    |   1.8 |  0.01
Comm    | 82.131     | 189.22     | 312.5      | 484.9 |  2.92
Output  | 0.15416    | 0.18939    | 0.21371    |   4.1 |  0.00
Modify  | 14.133     | 14.378     | 14.533     |   3.1 |  0.22
Other   |            | 263.2      |            |       |  4.06

Nlocal:    1491.43 ave 1504 max 1454 min
Histogram: 1 0 0 2 3 1 2 2 3 14
Nghost:    601.929 ave 658 max 552 min
Histogram: 3 4 3 2 3 2 5 2 2 2
Neighs:    0 ave 0 max 0 min
Histogram: 28 0 0 0 0 0 0 0 0 0
FullNghs:  49635.4 ave 50099 max 48330 min
Histogram: 1 0 1 0 3 3 1 2 10 7

Total # of neighbors = 1389792
Ave neighs/atom = 33.2805
Neighbor list builds = 501
Dangerous builds = 0
unfix           2
undump          1
#
reset_timestep 0

# Thermal conductivity simulation
variable        eheat  equal   2.0
variable        rheat  equal  -2.0
variable        Xleft  equal  bound(all,xmin)
variable        Xright equal  bound(all,xmax)
variable        Fleft  equal  (${Xright}-${Xleft})/4
variable        Fleft  equal  (1004.04741449201-${Xleft})/4
variable        Fleft  equal  (1004.04741449201--3.13825083597729)/4
variable        Fright equal  (${Xright}-${Xleft})*3/4
variable        Fright equal  (1004.04741449201-${Xleft})*3/4
variable        Fright equal  (1004.04741449201--3.13825083597729)*3/4
variable        Lhot   equal  ${Fleft}-20.0
variable        Lhot   equal  251.796416331997-20.0
variable        Rhot   equal  ${Fleft}+20.0
variable        Rhot   equal  251.796416331997+20.0
variable        Lcold equal  ${Fright}-20.0
variable        Lcold equal  755.38924899599-20.0
variable        Rcold equal  ${Fright}+20.0
variable        Rcold equal  755.38924899599+20.0
#region         Fleft  block INF  ${Fleft} INF INF INF INF units box
#region         Fright block ${Fright} INF INF INF INF INF units box
region          hot    block ${Lhot}   ${Rhot}  INF INF INF INF units box
region          hot    block 231.796416331997   ${Rhot}  INF INF INF INF units box
region          hot    block 231.796416331997   271.796416331997  INF INF INF INF units box
region          cold   block ${Lcold}  ${Rcold} INF INF INF INF units box
region          cold   block 735.38924899599  ${Rcold} INF INF INF INF units box
region          cold   block 735.38924899599  775.38924899599 INF INF INF INF units box
#group          Fixleft  region Fleft
#group          Fixright region Fright
group           hot   region  hot
1612 atoms in group hot
group           cold  region  cold
1618 atoms in group cold

# fix the atoms on the boundary
#fix            a1 Fixleft  setforce 0.0 0.0 0.0
#fix            a2 Fixright setforce 0.0 0.0 0.0
#velocity	Fixleft  set 0 0 0 units  box
#velocity	Fixright set 0 0 0 units  box

# Thermal conductivity simulation starts from here
fix             1 hot   heat 1000 v_eheat region hot
fix             2 cold  heat 1000 v_rheat region cold
fix             3 all nve
compute         myKE all ke/atom
compute         Thot hot temp/region hot
compute         Tcold cold temp/region cold
variable        atemp atom c_myKE/(1.5*8.621738*0.00001)
thermo_style    custom elaplong step temp pe ke etotal lx ly lz pxx pyy vol c_Thot c_Tcold
thermo          10000
timestep        0.0005
#-----Calculation of thermal conductivity for 24ns-------------
compute         layers4a all chunk/atom bin/1d x lower 10.0 units box
compute         layers4b all chunk/atom bin/1d x lower 20.0 units box
compute         layers5a all chunk/atom bin/1d x lower 50.0 units box
compute         layers5b all chunk/atom bin/1d x lower 60.0 units box
compute         layers6a all chunk/atom bin/1d x lower 10.0 units box
compute         layers6b all chunk/atom bin/1d x lower 20.0 units box
fix             4a all ave/chunk 1 1000000 1000000 layers4a v_atemp file Temperature10.txt
fix             4b all ave/chunk 1 1000000 1000000 layers4b v_atemp file Temperature20.txt
fix             5a all ave/chunk 1 2000000 2000000 layers5a v_atemp file Temperature50.txt
fix             5b all ave/chunk 1 2000000 2000000 layers5b v_atemp file Temperature60.txt
fix             6a all ave/chunk 1 4000000 4000000 layers6a v_atemp file Temperature10.4.txt
fix             6b all ave/chunk 1 4000000 4000000 layers6b v_atemp file Temperature20.4.txt
dump            A  all custom 1000000 dump_heat.lammpstrj id type x y z
run             8000000
Per MPI rank memory allocation (min/avg/max) = 4.906 | 4.907 | 4.907 Mbytes
Elaplong Step Temp PotEng KinEng TotEng Lx Ly Lz Pxx Pyy Volume c_Thot c_Tcold 
       0        0    301.09247   -184338.58    1625.2292   -182713.35    1006.9915    133.65215          106   -121.37755   -99.485006     14266178    297.55541    311.08261 
   10000    10000     299.9505   -184332.42    1619.0651   -182713.35    1006.9915    133.65215          106   -110.45519   -100.51656     14266178    326.14332    280.59586 
   20000    20000    300.63848   -184336.13    1622.7787   -182713.35    1006.9915    133.65215          106   -94.406118   -84.049568     14266178    323.74264    275.78948 
   30000    30000    299.56548   -184330.34    1616.9869   -182713.35    1006.9915    133.65215          106   -91.183086   -85.073031     14266178    338.95052    263.82891 
   40000    40000    299.16369   -184328.17    1614.8181   -182713.35    1006.9915    133.65215          106   -94.039962   -81.793287     14266178    338.24505    246.66242 
   50000    50000     300.3081   -184334.35    1620.9954   -182713.35    1006.9915    133.65215          106   -94.311382   -96.427774     14266178    356.09345    253.08436 
   60000    60000    300.05745   -184332.99    1619.6424   -182713.35    1006.9915    133.65215          106   -107.93661   -98.592536     14266178    354.33536    249.69415 
   70000    70000    299.56001   -184330.31    1616.9574   -182713.35    1006.9915    133.65215          106   -107.83186   -95.222224     14266178    362.49355    242.60523 
   80000    80000    300.85321   -184337.29    1623.9378   -182713.35    1006.9915    133.65215          106   -114.22115     -113.666     14266178    355.36694    232.99581 
   90000    90000    300.59384   -184335.89    1622.5377   -182713.35    1006.9915    133.65215          106   -116.48884   -83.430285     14266178    360.54373    237.62121 
  100000   100000    300.63372   -184336.11     1622.753   -182713.35    1006.9915    133.65215          106   -94.559544   -86.193377     14266178    370.77157    230.47581 
  110000   110000    300.14329   -184333.46    1620.1058   -182713.35    1006.9915    133.65215          106   -95.644061     -91.3977     14266178    375.76197    223.71743 
  120000   120000     299.5373   -184330.19    1616.8348   -182713.35    1006.9915    133.65215          106   -88.736358   -92.295572     14266178    372.37032    230.69603 
  130000   130000    300.78539   -184336.92    1623.5717   -182713.35    1006.9915    133.65215          106   -99.564582    -73.31477     14266178    382.31151     236.1113 
  140000   140000    299.50036   -184329.99    1616.6354   -182713.35    1006.9915    133.65215          106   -110.95532   -97.426651     14266178    381.66035    219.44674 
  150000   150000    299.45835   -184329.76    1616.4086   -182713.35    1006.9915    133.65215          106   -105.43749   -104.97087     14266178    386.17299    214.24895 
  160000   160000     300.1971   -184333.75    1620.3962   -182713.35    1006.9915    133.65215          106   -98.864264   -92.991532     14266178    387.67346    218.45633 
  170000   170000     301.5258   -184340.92    1627.5682   -182713.35    1006.9915    133.65215          106   -91.838877   -87.270469     14266178    403.16377    210.65718 
  180000   180000     298.6393   -184325.34    1611.9876   -182713.35    1006.9915    133.65215          106   -91.525565   -97.391375     14266178    383.01976    213.34795 
  190000   190000    300.16113   -184333.55    1620.2021   -182713.35    1006.9915    133.65215          106   -119.83708   -96.330621     14266178    395.73887    207.14932 
  200000   200000    299.97489   -184332.55    1619.1968   -182713.35    1006.9915    133.65215          106   -107.47348   -97.871009     14266178    378.12233    211.53378 
  210000   210000    299.43142   -184329.62    1616.2632   -182713.35    1006.9915    133.65215          106    -98.24286   -97.073097     14266178    384.06367    212.26063 
  220000   220000     300.7286   -184336.62    1623.2651   -182713.35    1006.9915    133.65215          106   -110.10822   -96.130586     14266178    390.13622    211.83735 
  230000   230000    300.68888    -184336.4    1623.0507   -182713.35    1006.9915    133.65215          106   -68.037876   -84.479381     14266178    403.64147    218.30843 
  240000   240000    300.36611   -184334.66    1621.3085   -182713.35    1006.9915    133.65215          106   -92.658973   -88.393207     14266178    397.63901     209.9371 
  250000   250000    299.57817   -184330.41    1617.0554   -182713.35    1006.9915    133.65215          106   -100.72748   -83.802613     14266178    392.90356    211.08143 
  260000   260000    300.58574   -184335.85     1622.494   -182713.35    1006.9915    133.65215          106   -86.591835   -84.631632     14266178    407.35203     211.1205 
  270000   270000    299.58881   -184330.46    1617.1128   -182713.35    1006.9915    133.65215          106   -74.364004   -77.176826     14266178    406.08284    208.85071 
  280000   280000    300.65162    -184336.2    1622.8496   -182713.35    1006.9915    133.65215          106   -101.56563   -95.558306     14266178    380.00157    206.34872 
  290000   290000    300.40601   -184334.88    1621.5239   -182713.35    1006.9915    133.65215          106   -97.913008   -108.50787     14266178    405.89869    208.52614 
  300000   300000    299.85733   -184331.91    1618.5622   -182713.35    1006.9915    133.65215          106   -125.02345   -88.900205     14266178    391.45673    202.20679 
  310000   310000    300.31124   -184334.37    1621.0123   -182713.35    1006.9915    133.65215          106   -110.92648   -97.921662     14266178    393.55451    199.46592 
  320000   320000    301.02209    -184338.2    1624.8493   -182713.35    1006.9915    133.65215          106   -118.08345   -94.526644     14266178    393.10152     207.1312 
  330000   330000    301.52801   -184340.93    1627.5801   -182713.35    1006.9915    133.65215          106   -79.911749   -95.813463     14266178    397.34892    203.85826 
  340000   340000    300.17455   -184333.63    1620.2745   -182713.35    1006.9915    133.65215          106   -86.284948   -81.879272     14266178    395.35587     205.5813 
  350000   350000    301.16622   -184338.98    1625.6273   -182713.35    1006.9915    133.65215          106   -78.683314    -102.3181     14266178    410.57272    201.78349 
  360000   360000    300.08173   -184333.13    1619.7735   -182713.35    1006.9915    133.65215          106    -87.02837   -97.404191     14266178    409.77207     196.6657 
  370000   370000    299.04176   -184327.51      1614.16   -182713.35    1006.9915    133.65215          106    -100.8715    -106.1288     14266178    405.45582    202.13353 
  380000   380000    298.97636   -184327.16     1613.807   -182713.35    1006.9915    133.65215          106   -97.007873   -105.25716     14266178    401.81125    201.86146 
  390000   390000    300.31293   -184334.37    1621.0214   -182713.35    1006.9915    133.65215          106    -86.56115   -69.918823     14266178     411.2089     200.5086 
  400000   400000    299.59406   -184330.49    1617.1411   -182713.35    1006.9915    133.65215          106   -103.43277   -104.52004     14266178    408.06171    196.48678 
  410000   410000    301.16026   -184338.95    1625.5951   -182713.35    1006.9915    133.65215          106   -115.73614   -87.247156     14266178    409.48493    197.46722 
  420000   420000    301.43161   -184340.41    1627.0598   -182713.35    1006.9915    133.65215          106   -92.027096   -88.935132     14266178    413.58945    197.13642 
  430000   430000    299.49354   -184329.95    1616.5986   -182713.35    1006.9915    133.65215          106   -99.257373   -92.999498     14266178    411.36212    195.85622 
  440000   440000    300.59184   -184335.88     1622.527   -182713.35    1006.9915    133.65215          106   -87.121631   -105.64176     14266178    417.49989    204.36848 
  450000   450000    301.39969   -184340.24    1626.8875   -182713.35    1006.9915    133.65215          106   -96.716021   -76.126757     14266178    409.19029    198.69973 
  460000   460000    301.25321   -184339.45    1626.0969   -182713.35    1006.9915    133.65215          106   -102.85155   -75.786045     14266178    404.32191    197.57166 
  470000   470000    300.69457   -184336.43    1623.0814   -182713.35    1006.9915    133.65215          106   -85.485481   -87.413573     14266178    411.90009     194.6107 
  480000   480000    300.63877   -184336.13    1622.7803   -182713.35    1006.9915    133.65215          106   -97.567256   -86.219352     14266178    399.00116    207.95683 
  490000   490000    300.14696   -184333.48    1620.1256   -182713.35    1006.9915    133.65215          106   -100.55615   -103.49858     14266178    410.92918    204.71618 
  500000   500000    300.84074   -184337.22    1623.8705   -182713.35    1006.9915    133.65215          106   -104.95543   -97.455014     14266178    403.88299    197.72674 
  510000   510000    300.48098   -184335.28    1621.9286   -182713.35    1006.9915    133.65215          106   -97.956518   -96.240131     14266178    412.65487    198.48964 
  520000   520000    300.48186   -184335.29    1621.9333   -182713.35    1006.9915    133.65215          106   -109.08209   -84.919088     14266178    416.14627    195.83888 
  530000   530000     299.5342   -184330.17    1616.8181   -182713.35    1006.9915    133.65215          106   -98.854563   -94.893302     14266178    413.74572    196.25767 
  540000   540000    302.06936   -184343.85    1630.5022   -182713.35    1006.9915    133.65215          106   -104.49041   -98.529085     14266178    407.04731    201.46752 
  550000   550000    300.40453   -184334.87    1621.5159   -182713.35    1006.9915    133.65215          106   -113.08754   -96.351155     14266178    412.97042     200.6792 
  560000   560000    300.01248   -184332.75    1619.3997   -182713.35    1006.9915    133.65215          106   -109.82564   -91.224063     14266178    421.02251    195.41782 
  570000   570000    300.41648   -184334.93    1621.5804   -182713.35    1006.9915    133.65215          106   -96.809355   -107.05555     14266178    408.04978    193.48888 
  580000   580000    301.62903   -184341.48    1628.1255   -182713.35    1006.9915    133.65215          106    -75.17691    -94.98376     14266178    418.00386    197.40169 
  590000   590000    299.74486   -184331.31    1617.9551   -182713.35    1006.9915    133.65215          106   -95.504222   -91.118374     14266178    412.46496    193.34851 
  600000   600000    299.46282   -184329.78    1616.4328   -182713.35    1006.9915    133.65215          106   -90.602703    -84.06197     14266178    416.44115     195.8636 
  610000   610000     298.9384   -184326.95     1613.602   -182713.35    1006.9915    133.65215          106   -106.56022   -93.475403     14266178    424.44036    196.90081 
  620000   620000    298.65432   -184325.42    1612.0686   -182713.35    1006.9915    133.65215          106   -91.915018   -103.46381     14266178    424.51426    192.98869 
  630000   630000    299.11803   -184327.92    1614.5716   -182713.35    1006.9915    133.65215          106    -109.7196   -111.43532     14266178    414.22669    194.74913 
  640000   640000    301.23602   -184339.36    1626.0041   -182713.35    1006.9915    133.65215          106   -102.11732   -94.458247     14266178    426.25106    187.65805 
  650000   650000    300.49631   -184335.36    1622.0113   -182713.35    1006.9915    133.65215          106   -112.93295   -94.659535     14266178    407.07983      185.574 
  660000   660000    300.63588   -184336.12    1622.7646   -182713.35    1006.9915    133.65215          106   -117.74468   -84.010724     14266178    421.63832    189.48594 
  670000   670000    302.17926   -184344.45    1631.0955   -182713.35    1006.9915    133.65215          106   -89.797147   -80.880688     14266178    425.63839    193.37168 
  680000   680000    300.47522   -184335.25    1621.8975   -182713.35    1006.9915    133.65215          106   -81.743473   -91.990752     14266178    423.67879     187.3244 
  690000   690000     299.0101   -184327.34     1613.989   -182713.35    1006.9915    133.65215          106   -89.315191   -82.355552     14266178    417.05852    194.39335 
  700000   700000    300.95677   -184337.85    1624.4967   -182713.35    1006.9915    133.65215          106   -95.619339   -88.660549     14266178    428.18799    190.44391 
  710000   710000    302.39819   -184345.63    1632.2772   -182713.35    1006.9915    133.65215          106   -89.782992   -93.889709     14266178    431.42888    189.94082 
  720000   720000     298.5578    -184324.9    1611.5476   -182713.35    1006.9915    133.65215          106   -102.80288   -96.437008     14266178    417.73459    193.57904 
  730000   730000    299.58363   -184330.44    1617.0849   -182713.35    1006.9915    133.65215          106   -105.01872   -86.179393     14266178    425.58937    194.69024 
  740000   740000    300.00071   -184332.69    1619.3362   -182713.35    1006.9915    133.65215          106   -111.38027   -94.633398     14266178     420.5966    202.12579 
  750000   750000    300.42835      -184335    1621.6444   -182713.35    1006.9915    133.65215          106   -96.040801   -106.03971     14266178    425.35452    200.21343 
  760000   760000    299.96688    -184332.5    1619.1536   -182713.35    1006.9915    133.65215          106   -91.169103   -89.938385     14266178    424.16959    192.31132 
[...]
 6940000  6940000    299.63705    -184330.7    1617.3732   -182713.33    1006.9915    133.65215          106   -86.952867   -83.286208     14266178     412.3594    193.58588 
 6950000  6950000    300.09173   -184333.16    1619.8274   -182713.33    1006.9915    133.65215          106   -100.28372   -99.069193     14266178    422.42625    194.60979 
 6960000  6960000    300.15026   -184333.47    1620.1434   -182713.33    1006.9915    133.65215          106   -114.67611   -86.106358     14266178    426.30063    195.63303 
 6970000  6970000    298.71447   -184325.72    1612.3933   -182713.33    1006.9915    133.65215          106   -74.797937   -78.779333     14266178    418.18978    188.15852 
 6980000  6980000    299.19661   -184328.33    1614.9958   -182713.33    1006.9915    133.65215          106   -80.300036   -84.343103     14266178     417.8128    194.46704 
 6990000  6990000    300.43826   -184335.03    1621.6979   -182713.33    1006.9915    133.65215          106   -100.32367   -64.538253     14266178    431.50801    189.38073 
 7000000  7000000    297.73614   -184320.44    1607.1125   -182713.33    1006.9915    133.65215          106   -100.74913    -62.63909     14266178    420.07325    189.12583 
 7010000  7010000    299.67092   -184330.89     1617.556   -182713.33    1006.9915    133.65215          106   -93.701412   -96.802171     14266178    442.16664    193.76176 
 7020000  7020000    300.89828   -184337.51     1624.181   -182713.33    1006.9915    133.65215          106   -75.469001    -64.62874     14266178    421.32008    196.58949 
 7030000  7030000    301.14623   -184338.85    1625.5194   -182713.33    1006.9915    133.65215          106   -86.499304   -92.805526     14266178    429.62092    193.50873 
 7040000  7040000    300.51772   -184335.46    1622.1268   -182713.33    1006.9915    133.65215          106   -105.77541   -85.123805     14266178    419.41616    192.57139 
 7050000  7050000    299.20538   -184328.37    1615.0431   -182713.33    1006.9915    133.65215          106   -82.491886    -91.74075     14266178    421.14641    191.55084 
 7060000  7060000    299.85918    -184331.9    1618.5722   -182713.33    1006.9915    133.65215          106   -75.831184   -78.471181     14266178    426.87619    191.84194 
 7070000  7070000    300.40946   -184334.87    1621.5425   -182713.33    1006.9915    133.65215          106   -83.709563   -63.648263     14266178    431.35368    194.65442 
 7080000  7080000     301.4194   -184340.32    1626.9939   -182713.33    1006.9915    133.65215          106   -90.715958   -86.152322     14266178    432.45427    186.97361 
 7090000  7090000    300.54326   -184335.59    1622.2647   -182713.33    1006.9915    133.65215          106   -93.102019   -93.958384     14266178    425.34793    192.89981 
 7100000  7100000    300.14538   -184333.45     1620.117   -182713.33    1006.9915    133.65215          106   -98.581862   -60.934848     14266178    420.19237     202.6184 
 7110000  7110000    299.50135   -184329.97    1616.6407   -182713.33    1006.9915    133.65215          106    -90.50271   -86.432198     14266178    425.09551    195.28676 
 7120000  7120000    300.41506    -184334.9    1621.5727   -182713.33    1006.9915    133.65215          106   -100.89045   -78.522241     14266178    426.51865    188.12372 
 7130000  7130000    299.70473   -184331.07    1617.7385   -182713.33    1006.9915    133.65215          106   -66.819852   -66.705217     14266178     414.5104    187.64891 
 7140000  7140000    299.75317   -184331.33         1618   -182713.33    1006.9915    133.65215          106   -54.298137   -63.408857     14266178    424.52582    187.57651 
 7150000  7150000    299.44717   -184329.68    1616.3483   -182713.33    1006.9915    133.65215          106   -64.600773   -89.569863     14266178    419.91528    187.86809 
 7160000  7160000     298.9385   -184326.93    1613.6026   -182713.33    1006.9915    133.65215          106   -85.740377   -89.216155     14266178    420.62205    188.98169 
 7170000  7170000    299.91386    -184332.2    1618.8674   -182713.33    1006.9915    133.65215          106   -66.569229   -70.605512     14266178    420.55758    189.48639 
 7180000  7180000    300.25094   -184334.02    1620.6868   -182713.33    1006.9915    133.65215          106    -67.98532   -77.668174     14266178    429.70798    195.65897 
 7190000  7190000    302.29746   -184345.06    1631.7335   -182713.33    1006.9915    133.65215          106   -94.391896   -79.523662     14266178    432.88921    194.73282 
 7200000  7200000    299.34006    -184329.1    1615.7701   -182713.33    1006.9915    133.65215          106   -98.472073   -90.655625     14266178    427.22187    198.00198 
 7210000  7210000    300.54767   -184335.62    1622.2885   -182713.33    1006.9915    133.65215          106   -80.221626   -66.034207     14266178    428.61417    187.70016 
 7220000  7220000    299.35605   -184329.19    1615.8564   -182713.33    1006.9915    133.65215          106   -96.846423   -91.998028     14266178    426.61532    193.78802 
 7230000  7230000    300.16425   -184333.55    1620.2189   -182713.33    1006.9915    133.65215          106   -86.395405   -81.576613     14266178    421.76884    189.74865 
 7240000  7240000    300.20634   -184333.78    1620.4461   -182713.33    1006.9915    133.65215          106   -94.604011   -96.742709     14266178    419.60556    194.44805 
 7250000  7250000    300.79471   -184336.95     1623.622   -182713.33    1006.9915    133.65215          106   -70.699112   -96.492891     14266178    430.72234    191.09443 
 7260000  7260000    300.47745   -184335.24    1621.9095   -182713.33    1006.9915    133.65215          106   -77.914892   -85.365533     14266178    427.23079    192.17194 
 7270000  7270000    302.08621   -184343.92    1630.5932   -182713.33    1006.9915    133.65215          106   -77.804949   -74.668598     14266178    425.45281    191.44034 
 7280000  7280000     301.4391   -184340.43    1627.1003   -182713.33    1006.9915    133.65215          106   -82.165398   -81.785514     14266178    432.62871    188.54521 
 7290000  7290000     300.3551   -184334.58    1621.2491   -182713.33    1006.9915    133.65215          106   -78.181626   -78.352799     14266178    427.63133    192.12751 
 7300000  7300000    300.21355   -184333.81     1620.485   -182713.33    1006.9915    133.65215          106   -102.40102   -98.092642     14266178    423.78405    189.40856 
 7310000  7310000    300.72936    -184336.6    1623.2692   -182713.33    1006.9915    133.65215          106   -85.807933   -80.775682     14266178    433.19213     189.7628 
 7320000  7320000    299.62841   -184330.66    1617.3266   -182713.33    1006.9915    133.65215          106   -99.789293   -80.153496     14266178    440.02747    182.99437 
 7330000  7330000    300.56512   -184335.71    1622.3827   -182713.33    1006.9915    133.65215          106   -104.71766   -79.992218     14266178     416.8484    191.00248 
 7340000  7340000    301.44882   -184340.48    1627.1527   -182713.33    1006.9915    133.65215          106   -81.445808   -82.555309     14266178    424.49222    190.86393 
 7350000  7350000    301.24522   -184339.38    1626.0537   -182713.33    1006.9915    133.65215          106   -70.262933   -82.649654     14266178    425.96907    196.93887 
 7360000  7360000    299.83049   -184331.75    1618.4173   -182713.33    1006.9915    133.65215          106   -71.859714   -90.893272     14266178    441.46587      191.658 
 7370000  7370000    300.05485   -184332.96    1619.6284   -182713.33    1006.9915    133.65215          106   -87.672106   -71.052541     14266178    431.92608    197.56397 
 7380000  7380000    300.15013   -184333.47    1620.1427   -182713.33    1006.9915    133.65215          106   -92.870085   -90.626924     14266178    427.06906    193.74529 
 7390000  7390000    300.53481   -184335.55    1622.2191   -182713.33    1006.9915    133.65215          106   -70.470315   -71.565689     14266178    429.24055    189.97832 
 7400000  7400000    298.29778   -184323.47    1610.1441   -182713.33    1006.9915    133.65215          106   -78.493542   -89.287312     14266178    427.65338    190.45739 
 7410000  7410000    300.55738   -184335.67    1622.3409   -182713.33    1006.9915    133.65215          106   -84.123848   -79.932313     14266178    418.59192     186.8116 
 7420000  7420000    299.98724   -184332.59    1619.2634   -182713.33    1006.9915    133.65215          106   -97.353693    -91.58206     14266178    406.73845     185.7293 
 7430000  7430000    300.62993   -184336.06    1622.7325   -182713.33    1006.9915    133.65215          106   -85.915092   -76.912455     14266178    417.66132    186.97756 
 7440000  7440000    300.52564    -184335.5    1622.1696   -182713.33    1006.9915    133.65215          106   -75.586005   -73.966194     14266178    415.08493    193.95007 
 7450000  7450000    300.61892      -184336    1622.6731   -182713.33    1006.9915    133.65215          106   -92.684274   -70.418642     14266178    420.91625     195.2178 
 7460000  7460000    300.74873    -184336.7    1623.3738   -182713.33    1006.9915    133.65215          106   -84.430202   -88.208266     14266178    414.95645    184.87798 
 7470000  7470000    301.57271   -184341.15    1627.8215   -182713.33    1006.9915    133.65215          106   -93.628475   -80.925739     14266178    424.20979    194.53624 
 7480000  7480000    300.02353   -184332.79    1619.4593   -182713.33    1006.9915    133.65215          106   -78.970065   -72.581466     14266178    402.72136    187.14877 
 7490000  7490000    300.17874   -184333.63    1620.2971   -182713.33    1006.9915    133.65215          106   -58.972666   -88.042415     14266178     425.4435    184.51116 
 7500000  7500000    301.66909   -184341.67    1628.3417   -182713.33    1006.9915    133.65215          106   -86.769894   -80.929713     14266178    436.66147    191.99719 
 7510000  7510000    300.46085   -184335.15    1621.8199   -182713.33    1006.9915    133.65215          106   -91.541782   -72.719019     14266178    421.21758    194.71635 
 7520000  7520000    299.48558   -184329.88    1616.5556   -182713.33    1006.9915    133.65215          106   -84.303933   -80.832285     14266178    424.34087    190.90177 
 7530000  7530000    299.50493   -184329.99      1616.66   -182713.33    1006.9915    133.65215          106   -89.257236   -88.118383     14266178    428.32962    192.40064 
 7540000  7540000    299.12099   -184327.92    1614.5876   -182713.33    1006.9915    133.65215          106   -70.922077   -77.476626     14266178    419.33785    191.69275 
 7550000  7550000    300.13992   -184333.42    1620.0876   -182713.33    1006.9915    133.65215          106   -95.167145   -88.776722     14266178    426.07065    184.40338 
 7560000  7560000    301.16931   -184338.97     1625.644   -182713.33    1006.9915    133.65215          106   -80.114389   -88.416712     14266178     421.5916    192.98531 
 7570000  7570000    300.96386   -184337.86     1624.535   -182713.33    1006.9915    133.65215          106   -92.888785   -68.048824     14266178    404.70069    196.39293 
 7580000  7580000     300.4977   -184335.35    1622.0188   -182713.33    1006.9915    133.65215          106   -91.374155   -78.906145     14266178    420.34122    178.95401 
 7590000  7590000    300.12139   -184333.32    1619.9876   -182713.33    1006.9915    133.65215          106   -70.330972   -74.283814     14266178     410.7352    186.45221 
 7600000  7600000    299.96635   -184332.48    1619.1507   -182713.33    1006.9915    133.65215          106   -67.739948   -92.432819     14266178    414.15709    185.39883 
 7610000  7610000    299.29244   -184328.84    1615.5131   -182713.33    1006.9915    133.65215          106   -83.181278   -68.865474     14266178    416.26595    192.76264 
 7620000  7620000    300.56653   -184335.72    1622.3903   -182713.33    1006.9915    133.65215          106   -90.100435   -87.572177     14266178    410.56624    193.65851 
 7630000  7630000     298.5204   -184324.67    1611.3458   -182713.33    1006.9915    133.65215          106   -96.501785   -83.787872     14266178     409.2051    196.56856 
 7640000  7640000    299.61816    -184330.6    1617.2712   -182713.33    1006.9915    133.65215          106   -95.255714    -89.92026     14266178    417.35287     190.5679 
 7650000  7650000    300.28784   -184334.21     1620.886   -182713.33    1006.9915    133.65215          106   -87.470813   -93.018788     14266178    422.97306    187.72582 
 7660000  7660000    299.06755   -184327.63    1614.2991   -182713.33    1006.9915    133.65215          106   -98.034279   -84.423984     14266178    418.25155    187.08787 
 7670000  7670000    299.56216    -184330.3     1616.969   -182713.33    1006.9915    133.65215          106    -100.9598   -77.242992     14266178    408.76623    193.77992 
 7680000  7680000    300.83317   -184337.16    1623.8296   -182713.33    1006.9915    133.65215          106   -93.514356   -66.113648     14266178    410.74569    191.46629 
 7690000  7690000    300.05013   -184332.93    1619.6029   -182713.33    1006.9915    133.65215          106   -68.205127   -76.477361     14266178    418.65454    190.17054 
 7700000  7700000     300.5634    -184335.7    1622.3734   -182713.33    1006.9915    133.65215          106   -75.521983   -75.308103     14266178    420.35937    191.73178 
 7710000  7710000    300.11318   -184333.27    1619.9432   -182713.33    1006.9915    133.65215          106   -88.082094   -103.63369     14266178    418.32824    186.77584 
 7720000  7720000     301.2553   -184339.44    1626.1082   -182713.33    1006.9915    133.65215          106   -61.671266   -86.559324     14266178    415.27205    184.90369 
 7730000  7730000    300.46137   -184335.15    1621.8227   -182713.33    1006.9915    133.65215          106   -66.147041   -77.444594     14266178    416.33629    186.39471 
 7740000  7740000    299.04429    -184327.5    1614.1736   -182713.33    1006.9915    133.65215          106   -73.743904   -85.446821     14266178    406.12232    187.89635 
 7750000  7750000    299.54727   -184330.22    1616.8886   -182713.33    1006.9915    133.65215          106   -93.270187   -72.288123     14266178     422.4575    192.29605 
 7760000  7760000    300.74543   -184336.68     1623.356   -182713.33    1006.9915    133.65215          106   -59.724371   -74.397179     14266178    431.27086    189.63685 
 7770000  7770000    300.23072   -184333.91    1620.5777   -182713.33    1006.9915    133.65215          106   -90.581178   -81.057471     14266178    411.35785    187.90555 
 7780000  7780000     300.0814    -184333.1    1619.7717   -182713.33    1006.9915    133.65215          106    -83.25962   -77.310008     14266178    412.88237    190.85562 
 7790000  7790000     299.4055   -184329.45    1616.1234   -182713.33    1006.9915    133.65215          106   -97.170329   -89.120222     14266178    419.94925    181.10123 
 7800000  7800000    299.47462   -184329.82    1616.4964   -182713.33    1006.9915    133.65215          106   -79.181674   -83.831056     14266178    414.57853     189.6402 
 7810000  7810000     300.3952   -184334.79    1621.4655   -182713.33    1006.9915    133.65215          106    -72.35129   -77.481609     14266178     415.4076    190.96266 
 7820000  7820000    301.79622   -184342.36    1629.0279   -182713.33    1006.9915    133.65215          106   -80.168932   -76.398894     14266178    435.80879    188.44403 
 7830000  7830000    299.92135   -184332.24    1618.9078   -182713.33    1006.9915    133.65215          106   -91.345541   -61.282636     14266178    411.45165    189.59645 
 7840000  7840000    300.24395   -184333.98    1620.6491   -182713.33    1006.9915    133.65215          106   -95.163839   -79.100852     14266178    427.02429    188.71223 
 7850000  7850000    300.41975   -184334.93     1621.598   -182713.33    1006.9915    133.65215          106   -78.775162   -73.083392     14266178    416.08217    196.11427 
 7860000  7860000    300.45117    -184335.1    1621.7676   -182713.33    1006.9915    133.65215          106    -74.96039    -62.64249     14266178    432.05497    194.21252 
 7870000  7870000    301.65596    -184341.6    1628.2708   -182713.33    1006.9915    133.65215          106   -80.159563   -80.977475     14266178    420.47887    196.45508 
 7880000  7880000    300.13754    -184333.4    1620.0747   -182713.33    1006.9915    133.65215          106   -104.14854   -73.894124     14266178    418.32833    195.19129 
 7890000  7890000    299.38839   -184329.36     1616.031   -182713.33    1006.9915    133.65215          106   -90.812268   -91.525236     14266178    414.46251    195.05233 
 7900000  7900000    299.71594   -184331.13     1617.799   -182713.33    1006.9915    133.65215          106    -90.31536   -73.410068     14266178    423.56122    191.64424 
 7910000  7910000    299.99354   -184332.62    1619.2974   -182713.33    1006.9915    133.65215          106   -89.193512   -81.306976     14266178     410.6104    183.98404 
 7920000  7920000    299.34749   -184329.14    1615.8102   -182713.33    1006.9915    133.65215          106   -91.199931   -81.631208     14266178    415.78225    189.06912 
 7930000  7930000    299.46609   -184329.78    1616.4504   -182713.33    1006.9915    133.65215          106   -75.616403   -72.471142     14266178    418.38743    191.59488 
 7940000  7940000    301.09357   -184338.56    1625.2351   -182713.33    1006.9915    133.65215          106    -82.44181   -68.207222     14266178    424.77029    191.02087 
 7950000  7950000    300.46611   -184335.18    1621.8483   -182713.33    1006.9915    133.65215          106   -71.617831   -67.541739     14266178    422.50511    197.45401 
 7960000  7960000    301.37559   -184340.09    1626.7575   -182713.33    1006.9915    133.65215          106   -79.886785   -69.356909     14266178    424.14873    189.93532 
 7970000  7970000    300.37433   -184334.68    1621.3529   -182713.33    1006.9915    133.65215          106   -80.369719   -86.062327     14266178    424.99394    186.04627 
 7980000  7980000    299.65051   -184330.77    1617.4459   -182713.33    1006.9915    133.65215          106   -91.951524   -71.114872     14266178     427.9216    194.45402 
 7990000  7990000     299.1823   -184328.24    1614.9186   -182713.33    1006.9915    133.65215          106   -64.863236   -68.869337     14266178    410.62928    197.98949 
 8000000  8000000    300.79832   -184336.97    1623.6415   -182713.33    1006.9915    133.65215          106   -85.888439   -68.944252     14266178    411.06948    196.91815 
Loop time of 55231.8 on 28 procs for 8000000 steps with 41760 atoms

Performance: 6.257 ns/day, 3.836 hours/ns, 144.844 timesteps/s
99.8% CPU use with 28 MPI tasks x no OpenMP threads

MPI task timing breakdown:
Section |  min time  |  avg time  |  max time  |%varavg| %total
---------------------------------------------------------------
Pair    | 47291      | 48250      | 49268      | 240.9 | 87.36
Neigh   | 6.2646     | 6.4894     | 6.7056     |   4.9 |  0.01
Comm    | 1090.6     | 1894.9     | 2753.3     |1106.0 |  3.43
Output  | 0.3078     | 0.31484    | 0.34212    |   1.0 |  0.00
Modify  | 1907.6     | 1940.8     | 1989.9     |  39.6 |  3.51
Other   |            | 3140       |            |       |  5.68

Nlocal:    1491.43 ave 1503 max 1460 min
Histogram: 2 0 1 2 1 2 2 0 3 15
Nghost:    603.071 ave 665 max 547 min
Histogram: 3 1 2 5 3 7 1 2 2 2
Neighs:    0 ave 0 max 0 min
Histogram: 28 0 0 0 0 0 0 0 0 0
FullNghs:  49633.4 ave 50282 max 48545 min
Histogram: 2 2 2 0 1 1 7 3 6 4

Total # of neighbors = 1389734
Ave neighs/atom = 33.2791
Neighbor list builds = 3466
Dangerous builds = 0
Total wall time: 18:57:31
