
     Program PWSCF v.6.4 starts on 29Jan2021 at 22:18:47 

     This program is part of the open-source Quantum ESPRESSO suite
     for quantum simulation of materials; please cite
         "P. Giannozzi et al., J. Phys.:Condens. Matter 21 395502 (2009);
         "P. Giannozzi et al., J. Phys.:Condens. Matter 29 465901 (2017);
          URL http://www.quantum-espresso.org", 
     in publications or presentations arising from this work. More details at
     http://www.quantum-espresso.org/quote

     Parallel version (MPI), running on    64 processors

     MPI processes distributed on     1 nodes
     K-points division:     npool     =       8
     R & G space division:  proc/nbgrp/npool/nimage =       8
     Waiting for input...
     Reading input from standard input

     Current dimensions of program PWSCF are:
     Max number of different atomic species (ntypx) = 10
     Max number of k-points (npk) =  40000
     Max angular momentum in pseudopotentials (lmaxx) =  3
               file Re.pbe-spn-kjpaw_psl.1.0.0.UPF: wavefunction(s)  5P 5D renormalized
               file O.pbe-n-kjpaw_psl.1.0.0.UPF: wavefunction(s)  2S 2P renormalized

     Subspace diagonalization in iterative solution of the eigenvalue problem:
     one sub-group per band group will be used
     scalapack distributed-memory algorithm (size of sub-group:  2*  2 procs)


     Parallelization info
     --------------------
     sticks:   dense  smooth     PW     G-vecs:    dense   smooth      PW
     Min         201     201     57                 6110     6110     935
     Max         203     203     59                 6112     6112     938
     Sum        1617    1617    465                48885    48885    7497


     Title: 
     ReO3_vc-relax                                                              


     bravais-lattice index     =            0
     lattice parameter (alat)  =       7.1239  a.u.
     unit-cell volume          =     361.5363 (a.u.)^3
     number of atoms/cell      =            4
     number of atomic types    =            2
     number of electrons       =        33.00
     number of Kohn-Sham states=           58
     kinetic-energy cutoff     =     100.0000  Ry
     charge density cutoff     =     400.0000  Ry
     convergence threshold     =      1.0E-09
     mixing beta               =       0.8000
     number of iterations used =            8  plain     mixing
     Exchange-correlation      = SLA PW PBX PBC ( 1  4  3  4 0 0)
     nstep                     =           50


     celldm(1)=   7.123892  celldm(2)=   0.000000  celldm(3)=   0.000000
     celldm(4)=   0.000000  celldm(5)=   0.000000  celldm(6)=   0.000000

     crystal axes: (cart. coord. in units of alat)
               a(1) = (   1.000000   0.000000   0.000000 )  
               a(2) = (   0.000000   1.000000   0.000000 )  
               a(3) = (   0.000000   0.000000   1.000000 )  

     reciprocal axes: (cart. coord. in units 2 pi/alat)
               b(1) = (  1.000000  0.000000  0.000000 )  
               b(2) = (  0.000000  1.000000  0.000000 )  
               b(3) = (  0.000000  0.000000  1.000000 )  


     PseudoPot. # 1 for Re read from file:
     /public3/home/sc55341/softwares/pseudopotentials/PSLibrary/PAW_PBE_SR/Re.pbe-spn-kjpaw_psl.1.0.0.UPF
     MD5 check sum: 6d708e36037b236d09c8061a1de8d29d
     Pseudo is Projector augmented-wave + core cor, Zval = 15.0
     Generated using "atomic" code by A. Dal Corso v.6.2.2
     Shape of augmentation charge: PSQ
     Using radial grid of 1275 points,  6 beta functions with: 
                l(1) =   0
                l(2) =   0
                l(3) =   1
                l(4) =   1
                l(5) =   2
                l(6) =   2
     Q(r) pseudized with 0 coefficients 


     PseudoPot. # 2 for O  read from file:
     /public3/home/sc55341/softwares/pseudopotentials/PSLibrary/PAW_PBE_SR/O.pbe-n-kjpaw_psl.1.0.0.UPF
     MD5 check sum: e99d9cef9b487d1ca56f5b95ecd0fd7a
     Pseudo is Projector augmented-wave + core cor, Zval =  6.0
     Generated using "atomic" code by A. Dal Corso v.6.3
     Shape of augmentation charge: PSQ
     Using radial grid of 1095 points,  4 beta functions with: 
                l(1) =   0
                l(2) =   0
                l(3) =   1
                l(4) =   1
     Q(r) pseudized with 0 coefficients 


     atomic species   valence    mass     pseudopotential
        Re            15.00   186.20700     Re( 1.00)
        O              6.00    15.99940     O ( 1.00)

     48 Sym. Ops., with inversion, found


                                    s                        frac. trans.

      isym =  1     identity                                     

 cryst.   s( 1) = (     1          0          0      )
                  (     0          1          0      )
                  (     0          0          1      )

 cart.    s( 1) = (  1.0000000  0.0000000  0.0000000 )
                  (  0.0000000  1.0000000  0.0000000 )
                  (  0.0000000  0.0000000  1.0000000 )


      isym =  2     180 deg rotation - cart. axis [0,0,1]        

 cryst.   s( 2) = (    -1          0          0      )
                  (     0         -1          0      )
                  (     0          0          1      )

 cart.    s( 2) = ( -1.0000000  0.0000000  0.0000000 )
                  (  0.0000000 -1.0000000  0.0000000 )
                  (  0.0000000  0.0000000  1.0000000 )


      isym =  3     180 deg rotation - cart. axis [0,1,0]        

 cryst.   s( 3) = (    -1          0          0      )
                  (     0          1          0      )
                  (     0          0         -1      )

 cart.    s( 3) = ( -1.0000000  0.0000000  0.0000000 )
                  (  0.0000000  1.0000000  0.0000000 )
                  (  0.0000000  0.0000000 -1.0000000 )


      isym =  4     180 deg rotation - cart. axis [1,0,0]        

 cryst.   s( 4) = (     1          0          0      )
                  (     0         -1          0      )
                  (     0          0         -1      )

 cart.    s( 4) = (  1.0000000  0.0000000  0.0000000 )
                  (  0.0000000 -1.0000000  0.0000000 )
                  (  0.0000000  0.0000000 -1.0000000 )


      isym =  5     180 deg rotation - cart. axis [1,1,0]        

 cryst.   s( 5) = (     0          1          0      )
                  (     1          0          0      )
                  (     0          0         -1      )

 cart.    s( 5) = (  0.0000000  1.0000000  0.0000000 )
                  (  1.0000000  0.0000000  0.0000000 )
                  (  0.0000000  0.0000000 -1.0000000 )


      isym =  6     180 deg rotation - cart. axis [1,-1,0]       

 cryst.   s( 6) = (     0         -1          0      )
                  (    -1          0          0      )
                  (     0          0         -1      )

 cart.    s( 6) = (  0.0000000 -1.0000000  0.0000000 )
                  ( -1.0000000  0.0000000  0.0000000 )
                  (  0.0000000  0.0000000 -1.0000000 )


      isym =  7      90 deg rotation - cart. axis [0,0,-1]       

 cryst.   s( 7) = (     0         -1          0      )
                  (     1          0          0      )
                  (     0          0          1      )

 cart.    s( 7) = (  0.0000000  1.0000000  0.0000000 )
                  ( -1.0000000  0.0000000  0.0000000 )
                  (  0.0000000  0.0000000  1.0000000 )


      isym =  8      90 deg rotation - cart. axis [0,0,1]        

 cryst.   s( 8) = (     0          1          0      )
                  (    -1          0          0      )
                  (     0          0          1      )

 cart.    s( 8) = (  0.0000000 -1.0000000  0.0000000 )
                  (  1.0000000  0.0000000  0.0000000 )
                  (  0.0000000  0.0000000  1.0000000 )


      isym =  9     180 deg rotation - cart. axis [1,0,1]        

 cryst.   s( 9) = (     0          0          1      )
                  (     0         -1          0      )
                  (     1          0          0      )

 cart.    s( 9) = (  0.0000000  0.0000000  1.0000000 )
                  (  0.0000000 -1.0000000  0.0000000 )
                  (  1.0000000  0.0000000  0.0000000 )


      isym = 10     180 deg rotation - cart. axis [-1,0,1]       

 cryst.   s(10) = (     0          0         -1      )
                  (     0         -1          0      )
                  (    -1          0          0      )

 cart.    s(10) = (  0.0000000  0.0000000 -1.0000000 )
                  (  0.0000000 -1.0000000  0.0000000 )
                  ( -1.0000000  0.0000000  0.0000000 )


      isym = 11      90 deg rotation - cart. axis [0,1,0]        

 cryst.   s(11) = (     0          0         -1      )
                  (     0          1          0      )
                  (     1          0          0      )

 cart.    s(11) = (  0.0000000  0.0000000  1.0000000 )
                  (  0.0000000  1.0000000  0.0000000 )
                  ( -1.0000000  0.0000000  0.0000000 )


      isym = 12      90 deg rotation - cart. axis [0,-1,0]       

 cryst.   s(12) = (     0          0          1      )
                  (     0          1          0      )
                  (    -1          0          0      )

 cart.    s(12) = (  0.0000000  0.0000000 -1.0000000 )
                  (  0.0000000  1.0000000  0.0000000 )
                  (  1.0000000  0.0000000  0.0000000 )


      isym = 13     180 deg rotation - cart. axis [0,1,1]        

 cryst.   s(13) = (    -1          0          0      )
                  (     0          0          1      )
                  (     0          1          0      )

 cart.    s(13) = ( -1.0000000  0.0000000  0.0000000 )
                  (  0.0000000  0.0000000  1.0000000 )
                  (  0.0000000  1.0000000  0.0000000 )


      isym = 14     180 deg rotation - cart. axis [0,1,-1]       

 cryst.   s(14) = (    -1          0          0      )
                  (     0          0         -1      )
                  (     0         -1          0      )

 cart.    s(14) = ( -1.0000000  0.0000000  0.0000000 )
                  (  0.0000000  0.0000000 -1.0000000 )
                  (  0.0000000 -1.0000000  0.0000000 )


      isym = 15      90 deg rotation - cart. axis [-1,0,0]       

 cryst.   s(15) = (     1          0          0      )
                  (     0          0         -1      )
                  (     0          1          0      )

 cart.    s(15) = (  1.0000000  0.0000000  0.0000000 )
                  (  0.0000000  0.0000000  1.0000000 )
                  (  0.0000000 -1.0000000  0.0000000 )


      isym = 16      90 deg rotation - cart. axis [1,0,0]        

 cryst.   s(16) = (     1          0          0      )
                  (     0          0          1      )
                  (     0         -1          0      )

 cart.    s(16) = (  1.0000000  0.0000000  0.0000000 )
                  (  0.0000000  0.0000000 -1.0000000 )
                  (  0.0000000  1.0000000  0.0000000 )


      isym = 17     120 deg rotation - cart. axis [-1,-1,-1]     

 cryst.   s(17) = (     0          0          1      )
                  (     1          0          0      )
                  (     0          1          0      )

 cart.    s(17) = (  0.0000000  1.0000000  0.0000000 )
                  (  0.0000000  0.0000000  1.0000000 )
                  (  1.0000000  0.0000000  0.0000000 )


      isym = 18     120 deg rotation - cart. axis [-1,1,1]       

 cryst.   s(18) = (     0          0         -1      )
                  (    -1          0          0      )
                  (     0          1          0      )

 cart.    s(18) = (  0.0000000 -1.0000000  0.0000000 )
                  (  0.0000000  0.0000000  1.0000000 )
                  ( -1.0000000  0.0000000  0.0000000 )


      isym = 19     120 deg rotation - cart. axis [1,1,-1]       

 cryst.   s(19) = (     0          0         -1      )
                  (     1          0          0      )
                  (     0         -1          0      )

 cart.    s(19) = (  0.0000000  1.0000000  0.0000000 )
                  (  0.0000000  0.0000000 -1.0000000 )
                  ( -1.0000000  0.0000000  0.0000000 )


      isym = 20     120 deg rotation - cart. axis [1,-1,1]       

 cryst.   s(20) = (     0          0          1      )
                  (    -1          0          0      )
                  (     0         -1          0      )

 cart.    s(20) = (  0.0000000 -1.0000000  0.0000000 )
                  (  0.0000000  0.0000000 -1.0000000 )
                  (  1.0000000  0.0000000  0.0000000 )


      isym = 21     120 deg rotation - cart. axis [1,1,1]        

 cryst.   s(21) = (     0          1          0      )
                  (     0          0          1      )
                  (     1          0          0      )

 cart.    s(21) = (  0.0000000  0.0000000  1.0000000 )
                  (  1.0000000  0.0000000  0.0000000 )
                  (  0.0000000  1.0000000  0.0000000 )


      isym = 22     120 deg rotation - cart. axis [-1,1,-1]      

 cryst.   s(22) = (     0         -1          0      )
                  (     0          0         -1      )
                  (     1          0          0      )

 cart.    s(22) = (  0.0000000  0.0000000  1.0000000 )
                  ( -1.0000000  0.0000000  0.0000000 )
                  (  0.0000000 -1.0000000  0.0000000 )


      isym = 23     120 deg rotation - cart. axis [1,-1,-1]      

 cryst.   s(23) = (     0         -1          0      )
                  (     0          0          1      )
                  (    -1          0          0      )

 cart.    s(23) = (  0.0000000  0.0000000 -1.0000000 )
                  ( -1.0000000  0.0000000  0.0000000 )
                  (  0.0000000  1.0000000  0.0000000 )


      isym = 24     120 deg rotation - cart. axis [-1,-1,1]      

 cryst.   s(24) = (     0          1          0      )
                  (     0          0         -1      )
                  (    -1          0          0      )

 cart.    s(24) = (  0.0000000  0.0000000 -1.0000000 )
                  (  1.0000000  0.0000000  0.0000000 )
                  (  0.0000000 -1.0000000  0.0000000 )


      isym = 25     inversion                                    

 cryst.   s(25) = (    -1          0          0      )
                  (     0         -1          0      )
                  (     0          0         -1      )

 cart.    s(25) = ( -1.0000000  0.0000000  0.0000000 )
                  (  0.0000000 -1.0000000  0.0000000 )
                  (  0.0000000  0.0000000 -1.0000000 )


      isym = 26     inv. 180 deg rotation - cart. axis [0,0,1]   

 cryst.   s(26) = (     1          0          0      )
                  (     0          1          0      )
                  (     0          0         -1      )

 cart.    s(26) = (  1.0000000  0.0000000  0.0000000 )
                  (  0.0000000  1.0000000  0.0000000 )
                  (  0.0000000  0.0000000 -1.0000000 )


      isym = 27     inv. 180 deg rotation - cart. axis [0,1,0]   

 cryst.   s(27) = (     1          0          0      )
                  (     0         -1          0      )
                  (     0          0          1      )

 cart.    s(27) = (  1.0000000  0.0000000  0.0000000 )
                  (  0.0000000 -1.0000000  0.0000000 )
                  (  0.0000000  0.0000000  1.0000000 )


      isym = 28     inv. 180 deg rotation - cart. axis [1,0,0]   

 cryst.   s(28) = (    -1          0          0      )
                  (     0          1          0      )
                  (     0          0          1      )

 cart.    s(28) = ( -1.0000000  0.0000000  0.0000000 )
                  (  0.0000000  1.0000000  0.0000000 )
                  (  0.0000000  0.0000000  1.0000000 )


      isym = 29     inv. 180 deg rotation - cart. axis [1,1,0]   

 cryst.   s(29) = (     0         -1          0      )
                  (    -1          0          0      )
                  (     0          0          1      )

 cart.    s(29) = (  0.0000000 -1.0000000  0.0000000 )
                  ( -1.0000000  0.0000000  0.0000000 )
                  (  0.0000000  0.0000000  1.0000000 )


      isym = 30     inv. 180 deg rotation - cart. axis [1,-1,0]  

 cryst.   s(30) = (     0          1          0      )
                  (     1          0          0      )
                  (     0          0          1      )

 cart.    s(30) = (  0.0000000  1.0000000  0.0000000 )
                  (  1.0000000  0.0000000  0.0000000 )
                  (  0.0000000  0.0000000  1.0000000 )


      isym = 31     inv.  90 deg rotation - cart. axis [0,0,-1]  

 cryst.   s(31) = (     0          1          0      )
                  (    -1          0          0      )
                  (     0          0         -1      )

 cart.    s(31) = (  0.0000000 -1.0000000  0.0000000 )
                  (  1.0000000  0.0000000  0.0000000 )
                  (  0.0000000  0.0000000 -1.0000000 )


      isym = 32     inv.  90 deg rotation - cart. axis [0,0,1]   

 cryst.   s(32) = (     0         -1          0      )
                  (     1          0          0      )
                  (     0          0         -1      )

 cart.    s(32) = (  0.0000000  1.0000000  0.0000000 )
                  ( -1.0000000  0.0000000  0.0000000 )
                  (  0.0000000  0.0000000 -1.0000000 )


      isym = 33     inv. 180 deg rotation - cart. axis [1,0,1]   

 cryst.   s(33) = (     0          0         -1      )
                  (     0          1          0      )
                  (    -1          0          0      )

 cart.    s(33) = (  0.0000000  0.0000000 -1.0000000 )
                  (  0.0000000  1.0000000  0.0000000 )
                  ( -1.0000000  0.0000000  0.0000000 )


      isym = 34     inv. 180 deg rotation - cart. axis [-1,0,1]  

 cryst.   s(34) = (     0          0          1      )
                  (     0          1          0      )
                  (     1          0          0      )

 cart.    s(34) = (  0.0000000  0.0000000  1.0000000 )
                  (  0.0000000  1.0000000  0.0000000 )
                  (  1.0000000  0.0000000  0.0000000 )


      isym = 35     inv.  90 deg rotation - cart. axis [0,1,0]   

 cryst.   s(35) = (     0          0          1      )
                  (     0         -1          0      )
                  (    -1          0          0      )

 cart.    s(35) = (  0.0000000  0.0000000 -1.0000000 )
                  (  0.0000000 -1.0000000  0.0000000 )
                  (  1.0000000  0.0000000  0.0000000 )


      isym = 36     inv.  90 deg rotation - cart. axis [0,-1,0]  

 cryst.   s(36) = (     0          0         -1      )
                  (     0         -1          0      )
                  (     1          0          0      )

 cart.    s(36) = (  0.0000000  0.0000000  1.0000000 )
                  (  0.0000000 -1.0000000  0.0000000 )
                  ( -1.0000000  0.0000000  0.0000000 )


      isym = 37     inv. 180 deg rotation - cart. axis [0,1,1]   

 cryst.   s(37) = (     1          0          0      )
                  (     0          0         -1      )
                  (     0         -1          0      )

 cart.    s(37) = (  1.0000000  0.0000000  0.0000000 )
                  (  0.0000000  0.0000000 -1.0000000 )
                  (  0.0000000 -1.0000000  0.0000000 )


      isym = 38     inv. 180 deg rotation - cart. axis [0,1,-1]  

 cryst.   s(38) = (     1          0          0      )
                  (     0          0          1      )
                  (     0          1          0      )

 cart.    s(38) = (  1.0000000  0.0000000  0.0000000 )
                  (  0.0000000  0.0000000  1.0000000 )
                  (  0.0000000  1.0000000  0.0000000 )


      isym = 39     inv.  90 deg rotation - cart. axis [-1,0,0]  

 cryst.   s(39) = (    -1          0          0      )
                  (     0          0          1      )
                  (     0         -1          0      )

 cart.    s(39) = ( -1.0000000  0.0000000  0.0000000 )
                  (  0.0000000  0.0000000 -1.0000000 )
                  (  0.0000000  1.0000000  0.0000000 )


      isym = 40     inv.  90 deg rotation - cart. axis [1,0,0]   

 cryst.   s(40) = (    -1          0          0      )
                  (     0          0         -1      )
                  (     0          1          0      )

 cart.    s(40) = ( -1.0000000  0.0000000  0.0000000 )
                  (  0.0000000  0.0000000  1.0000000 )
                  (  0.0000000 -1.0000000  0.0000000 )


      isym = 41     inv. 120 deg rotation - cart. axis [-1,-1,-1]

 cryst.   s(41) = (     0          0         -1      )
                  (    -1          0          0      )
                  (     0         -1          0      )

 cart.    s(41) = (  0.0000000 -1.0000000  0.0000000 )
                  (  0.0000000  0.0000000 -1.0000000 )
                  ( -1.0000000  0.0000000  0.0000000 )


      isym = 42     inv. 120 deg rotation - cart. axis [-1,1,1]  

 cryst.   s(42) = (     0          0          1      )
                  (     1          0          0      )
                  (     0         -1          0      )

 cart.    s(42) = (  0.0000000  1.0000000  0.0000000 )
                  (  0.0000000  0.0000000 -1.0000000 )
                  (  1.0000000  0.0000000  0.0000000 )


      isym = 43     inv. 120 deg rotation - cart. axis [1,1,-1]  

 cryst.   s(43) = (     0          0          1      )
                  (    -1          0          0      )
                  (     0          1          0      )

 cart.    s(43) = (  0.0000000 -1.0000000  0.0000000 )
                  (  0.0000000  0.0000000  1.0000000 )
                  (  1.0000000  0.0000000  0.0000000 )


      isym = 44     inv. 120 deg rotation - cart. axis [1,-1,1]  

 cryst.   s(44) = (     0          0         -1      )
                  (     1          0          0      )
                  (     0          1          0      )

 cart.    s(44) = (  0.0000000  1.0000000  0.0000000 )
                  (  0.0000000  0.0000000  1.0000000 )
                  ( -1.0000000  0.0000000  0.0000000 )


      isym = 45     inv. 120 deg rotation - cart. axis [1,1,1]   

 cryst.   s(45) = (     0         -1          0      )
                  (     0          0         -1      )
                  (    -1          0          0      )

 cart.    s(45) = (  0.0000000  0.0000000 -1.0000000 )
                  ( -1.0000000  0.0000000  0.0000000 )
                  (  0.0000000 -1.0000000  0.0000000 )


      isym = 46     inv. 120 deg rotation - cart. axis [-1,1,-1] 

 cryst.   s(46) = (     0          1          0      )
                  (     0          0          1      )
                  (    -1          0          0      )

 cart.    s(46) = (  0.0000000  0.0000000 -1.0000000 )
                  (  1.0000000  0.0000000  0.0000000 )
                  (  0.0000000  1.0000000  0.0000000 )


      isym = 47     inv. 120 deg rotation - cart. axis [1,-1,-1] 

 cryst.   s(47) = (     0          1          0      )
                  (     0          0         -1      )
                  (     1          0          0      )

 cart.    s(47) = (  0.0000000  0.0000000  1.0000000 )
                  (  1.0000000  0.0000000  0.0000000 )
                  (  0.0000000 -1.0000000  0.0000000 )


      isym = 48     inv. 120 deg rotation - cart. axis [-1,-1,1] 

 cryst.   s(48) = (     0         -1          0      )
                  (     0          0          1      )
                  (     1          0          0      )

 cart.    s(48) = (  0.0000000  0.0000000  1.0000000 )
                  ( -1.0000000  0.0000000  0.0000000 )
                  (  0.0000000  1.0000000  0.0000000 )


   Cartesian axes

     site n.     atom                  positions (alat units)
         1           O   tau(   1) = (   0.0000000   0.0000000   0.5000000  )
         2           O   tau(   2) = (   0.0000000   0.5000000   0.0000000  )
         3           O   tau(   3) = (   0.5000000   0.0000000   0.0000000  )
         4           Re  tau(   4) = (   0.0000000   0.0000000   0.0000000  )

   Crystallographic axes

     site n.     atom                  positions (cryst. coord.)
         1           O   tau(   1) = (  0.0000000  0.0000000  0.5000000  )
         2           O   tau(   2) = (  0.0000000  0.5000000  0.0000000  )
         3           O   tau(   3) = (  0.5000000  0.0000000  0.0000000  )
         4           Re  tau(   4) = (  0.0000000  0.0000000  0.0000000  )

     number of k points=    56  Methfessel-Paxton smearing, width (Ry)=  0.0200
                       cart. coord. in units 2pi/alat
        k(    1) = (   0.0416667   0.0416667   0.0416667), wk =   0.0092593
        k(    2) = (   0.0416667   0.0416667   0.1250000), wk =   0.0277778
        k(    3) = (   0.0416667   0.0416667   0.2083333), wk =   0.0277778
        k(    4) = (   0.0416667   0.0416667   0.2916667), wk =   0.0277778
        k(    5) = (   0.0416667   0.0416667   0.3750000), wk =   0.0277778
        k(    6) = (   0.0416667   0.0416667   0.4583333), wk =   0.0277778
        k(    7) = (   0.0416667   0.1250000   0.1250000), wk =   0.0277778
        k(    8) = (   0.0416667   0.1250000   0.2083333), wk =   0.0555556
        k(    9) = (   0.0416667   0.1250000   0.2916667), wk =   0.0555556
        k(   10) = (   0.0416667   0.1250000   0.3750000), wk =   0.0555556
        k(   11) = (   0.0416667   0.1250000   0.4583333), wk =   0.0555556
        k(   12) = (   0.0416667   0.2083333   0.2083333), wk =   0.0277778
        k(   13) = (   0.0416667   0.2083333   0.2916667), wk =   0.0555556
        k(   14) = (   0.0416667   0.2083333   0.3750000), wk =   0.0555556
        k(   15) = (   0.0416667   0.2083333   0.4583333), wk =   0.0555556
        k(   16) = (   0.0416667   0.2916667   0.2916667), wk =   0.0277778
        k(   17) = (   0.0416667   0.2916667   0.3750000), wk =   0.0555556
        k(   18) = (   0.0416667   0.2916667   0.4583333), wk =   0.0555556
        k(   19) = (   0.0416667   0.3750000   0.3750000), wk =   0.0277778
        k(   20) = (   0.0416667   0.3750000   0.4583333), wk =   0.0555556
        k(   21) = (   0.0416667   0.4583333   0.4583333), wk =   0.0277778
        k(   22) = (   0.1250000   0.1250000   0.1250000), wk =   0.0092593
        k(   23) = (   0.1250000   0.1250000   0.2083333), wk =   0.0277778
        k(   24) = (   0.1250000   0.1250000   0.2916667), wk =   0.0277778
        k(   25) = (   0.1250000   0.1250000   0.3750000), wk =   0.0277778
        k(   26) = (   0.1250000   0.1250000   0.4583333), wk =   0.0277778
        k(   27) = (   0.1250000   0.2083333   0.2083333), wk =   0.0277778
        k(   28) = (   0.1250000   0.2083333   0.2916667), wk =   0.0555556
        k(   29) = (   0.1250000   0.2083333   0.3750000), wk =   0.0555556
        k(   30) = (   0.1250000   0.2083333   0.4583333), wk =   0.0555556
        k(   31) = (   0.1250000   0.2916667   0.2916667), wk =   0.0277778
        k(   32) = (   0.1250000   0.2916667   0.3750000), wk =   0.0555556
        k(   33) = (   0.1250000   0.2916667   0.4583333), wk =   0.0555556
        k(   34) = (   0.1250000   0.3750000   0.3750000), wk =   0.0277778
        k(   35) = (   0.1250000   0.3750000   0.4583333), wk =   0.0555556
        k(   36) = (   0.1250000   0.4583333   0.4583333), wk =   0.0277778
        k(   37) = (   0.2083333   0.2083333   0.2083333), wk =   0.0092593
        k(   38) = (   0.2083333   0.2083333   0.2916667), wk =   0.0277778
        k(   39) = (   0.2083333   0.2083333   0.3750000), wk =   0.0277778
        k(   40) = (   0.2083333   0.2083333   0.4583333), wk =   0.0277778
        k(   41) = (   0.2083333   0.2916667   0.2916667), wk =   0.0277778
        k(   42) = (   0.2083333   0.2916667   0.3750000), wk =   0.0555556
        k(   43) = (   0.2083333   0.2916667   0.4583333), wk =   0.0555556
        k(   44) = (   0.2083333   0.3750000   0.3750000), wk =   0.0277778
        k(   45) = (   0.2083333   0.3750000   0.4583333), wk =   0.0555556
        k(   46) = (   0.2083333   0.4583333   0.4583333), wk =   0.0277778
        k(   47) = (   0.2916667   0.2916667   0.2916667), wk =   0.0092593
        k(   48) = (   0.2916667   0.2916667   0.3750000), wk =   0.0277778
        k(   49) = (   0.2916667   0.2916667   0.4583333), wk =   0.0277778
        k(   50) = (   0.2916667   0.3750000   0.3750000), wk =   0.0277778
        k(   51) = (   0.2916667   0.3750000   0.4583333), wk =   0.0555556
        k(   52) = (   0.2916667   0.4583333   0.4583333), wk =   0.0277778
        k(   53) = (   0.3750000   0.3750000   0.3750000), wk =   0.0092593
        k(   54) = (   0.3750000   0.3750000   0.4583333), wk =   0.0277778
        k(   55) = (   0.3750000   0.4583333   0.4583333), wk =   0.0277778
        k(   56) = (   0.4583333   0.4583333   0.4583333), wk =   0.0092593

                       cryst. coord.
        k(    1) = (   0.0416667   0.0416667   0.0416667), wk =   0.0092593
        k(    2) = (   0.0416667   0.0416667   0.1250000), wk =   0.0277778
        k(    3) = (   0.0416667   0.0416667   0.2083333), wk =   0.0277778
        k(    4) = (   0.0416667   0.0416667   0.2916667), wk =   0.0277778
        k(    5) = (   0.0416667   0.0416667   0.3750000), wk =   0.0277778
        k(    6) = (   0.0416667   0.0416667   0.4583333), wk =   0.0277778
        k(    7) = (   0.0416667   0.1250000   0.1250000), wk =   0.0277778
        k(    8) = (   0.0416667   0.1250000   0.2083333), wk =   0.0555556
        k(    9) = (   0.0416667   0.1250000   0.2916667), wk =   0.0555556
        k(   10) = (   0.0416667   0.1250000   0.3750000), wk =   0.0555556
        k(   11) = (   0.0416667   0.1250000   0.4583333), wk =   0.0555556
        k(   12) = (   0.0416667   0.2083333   0.2083333), wk =   0.0277778
        k(   13) = (   0.0416667   0.2083333   0.2916667), wk =   0.0555556
        k(   14) = (   0.0416667   0.2083333   0.3750000), wk =   0.0555556
        k(   15) = (   0.0416667   0.2083333   0.4583333), wk =   0.0555556
        k(   16) = (   0.0416667   0.2916667   0.2916667), wk =   0.0277778
        k(   17) = (   0.0416667   0.2916667   0.3750000), wk =   0.0555556
        k(   18) = (   0.0416667   0.2916667   0.4583333), wk =   0.0555556
        k(   19) = (   0.0416667   0.3750000   0.3750000), wk =   0.0277778
        k(   20) = (   0.0416667   0.3750000   0.4583333), wk =   0.0555556
        k(   21) = (   0.0416667   0.4583333   0.4583333), wk =   0.0277778
        k(   22) = (   0.1250000   0.1250000   0.1250000), wk =   0.0092593
        k(   23) = (   0.1250000   0.1250000   0.2083333), wk =   0.0277778
        k(   24) = (   0.1250000   0.1250000   0.2916667), wk =   0.0277778
        k(   25) = (   0.1250000   0.1250000   0.3750000), wk =   0.0277778
        k(   26) = (   0.1250000   0.1250000   0.4583333), wk =   0.0277778
        k(   27) = (   0.1250000   0.2083333   0.2083333), wk =   0.0277778
        k(   28) = (   0.1250000   0.2083333   0.2916667), wk =   0.0555556
        k(   29) = (   0.1250000   0.2083333   0.3750000), wk =   0.0555556
        k(   30) = (   0.1250000   0.2083333   0.4583333), wk =   0.0555556
        k(   31) = (   0.1250000   0.2916667   0.2916667), wk =   0.0277778
        k(   32) = (   0.1250000   0.2916667   0.3750000), wk =   0.0555556
        k(   33) = (   0.1250000   0.2916667   0.4583333), wk =   0.0555556
        k(   34) = (   0.1250000   0.3750000   0.3750000), wk =   0.0277778
        k(   35) = (   0.1250000   0.3750000   0.4583333), wk =   0.0555556
        k(   36) = (   0.1250000   0.4583333   0.4583333), wk =   0.0277778
        k(   37) = (   0.2083333   0.2083333   0.2083333), wk =   0.0092593
        k(   38) = (   0.2083333   0.2083333   0.2916667), wk =   0.0277778
        k(   39) = (   0.2083333   0.2083333   0.3750000), wk =   0.0277778
        k(   40) = (   0.2083333   0.2083333   0.4583333), wk =   0.0277778
        k(   41) = (   0.2083333   0.2916667   0.2916667), wk =   0.0277778
        k(   42) = (   0.2083333   0.2916667   0.3750000), wk =   0.0555556
        k(   43) = (   0.2083333   0.2916667   0.4583333), wk =   0.0555556
        k(   44) = (   0.2083333   0.3750000   0.3750000), wk =   0.0277778
        k(   45) = (   0.2083333   0.3750000   0.4583333), wk =   0.0555556
        k(   46) = (   0.2083333   0.4583333   0.4583333), wk =   0.0277778
        k(   47) = (   0.2916667   0.2916667   0.2916667), wk =   0.0092593
        k(   48) = (   0.2916667   0.2916667   0.3750000), wk =   0.0277778
        k(   49) = (   0.2916667   0.2916667   0.4583333), wk =   0.0277778
        k(   50) = (   0.2916667   0.3750000   0.3750000), wk =   0.0277778
        k(   51) = (   0.2916667   0.3750000   0.4583333), wk =   0.0555556
        k(   52) = (   0.2916667   0.4583333   0.4583333), wk =   0.0277778
        k(   53) = (   0.3750000   0.3750000   0.3750000), wk =   0.0092593
        k(   54) = (   0.3750000   0.3750000   0.4583333), wk =   0.0277778
        k(   55) = (   0.3750000   0.4583333   0.4583333), wk =   0.0277778
        k(   56) = (   0.4583333   0.4583333   0.4583333), wk =   0.0092593

     Dense  grid:    48885 G-vectors     FFT dimensions: (  45,  45,  45)

     Dynamical RAM for                 wfc:       0.68 MB

     Dynamical RAM for     wfc (w. buffer):       5.40 MB

     Dynamical RAM for           str. fact:       0.19 MB

     Dynamical RAM for           local pot:       0.00 MB

     Dynamical RAM for          nlocal pot:       0.49 MB

     Dynamical RAM for                qrad:       7.28 MB

     Dynamical RAM for          rho,v,vnew:       0.56 MB

     Dynamical RAM for               rhoin:       0.19 MB

     Dynamical RAM for            rho*nmix:       1.49 MB

     Dynamical RAM for           G-vectors:       0.40 MB

     Dynamical RAM for          h,s,v(r/c):       0.62 MB

     Dynamical RAM for          <psi|beta>:       0.04 MB

     Dynamical RAM for                 psi:       2.70 MB

     Dynamical RAM for                hpsi:       2.70 MB

     Dynamical RAM for                spsi:       2.70 MB

     Dynamical RAM for      wfcinit/wfcrot:       1.43 MB

     Dynamical RAM for           addusdens:       2.28 MB

     Dynamical RAM for          addusforce:       2.34 MB

     Dynamical RAM for         addusstress:       2.38 MB

     Estimated static dynamical RAM per process >      16.73 MB

     Estimated max dynamical RAM per process >      25.49 MB

     Estimated total dynamical RAM >       1.59 GB

     Check: negative core charge=   -0.000002

     Initial potential from superposition of free atoms

     starting charge   32.99970, renormalised to   33.00000
     Starting wfcs are   22 randomized atomic wfcs +   36 random wfcs
     Checking if some PAW data can be deallocated... 
       PAW data deallocated on   48 nodes for type:  1
       PAW data deallocated on   16 nodes for type:  2

     total cpu time spent up to now is        2.3 secs

     Self-consistent Calculation

     iteration #  1     ecut=   100.00 Ry     beta= 0.80
     Davidson diagonalization with overlap
     ethr =  1.00E-02,  avg # of iterations =  5.2

     total cpu time spent up to now is        3.6 secs

     total energy              =    -919.68807494 Ry
     Harris-Foulkes estimate   =    -921.11155055 Ry
     estimated scf accuracy    <       1.69171106 Ry

     iteration #  2     ecut=   100.00 Ry     beta= 0.80
     Davidson diagonalization with overlap
     ethr =  5.13E-03,  avg # of iterations =  2.2

     total cpu time spent up to now is        4.1 secs

     total energy              =    -918.65054285 Ry
     Harris-Foulkes estimate   =    -922.80478046 Ry
     estimated scf accuracy    <      11.54273457 Ry

     iteration #  3     ecut=   100.00 Ry     beta= 0.80
     Davidson diagonalization with overlap
     ethr =  5.13E-03,  avg # of iterations =  1.5

     total cpu time spent up to now is        4.6 secs

     total energy              =    -920.69190987 Ry
     Harris-Foulkes estimate   =    -920.72921160 Ry
     estimated scf accuracy    <       0.11703744 Ry

     iteration #  4     ecut=   100.00 Ry     beta= 0.80
     Davidson diagonalization with overlap
     ethr =  3.55E-04,  avg # of iterations =  2.4

     total cpu time spent up to now is        5.3 secs

     total energy              =    -920.69849620 Ry
     Harris-Foulkes estimate   =    -920.71155653 Ry
     estimated scf accuracy    <       0.02992897 Ry

     iteration #  5     ecut=   100.00 Ry     beta= 0.80
     Davidson diagonalization with overlap
     ethr =  9.07E-05,  avg # of iterations =  1.6

     total cpu time spent up to now is        5.9 secs

     total energy              =    -920.70451967 Ry
     Harris-Foulkes estimate   =    -920.70463765 Ry
     estimated scf accuracy    <       0.00045746 Ry

     iteration #  6     ecut=   100.00 Ry     beta= 0.80
     Davidson diagonalization with overlap
     ethr =  1.39E-06,  avg # of iterations =  5.0

     total cpu time spent up to now is        6.8 secs

     total energy              =    -920.70463704 Ry
     Harris-Foulkes estimate   =    -920.70466895 Ry
     estimated scf accuracy    <       0.00005938 Ry

     iteration #  7     ecut=   100.00 Ry     beta= 0.80
     Davidson diagonalization with overlap
     ethr =  1.80E-07,  avg # of iterations =  1.0

     total cpu time spent up to now is        7.3 secs

     total energy              =    -920.70464931 Ry
     Harris-Foulkes estimate   =    -920.70464961 Ry
     estimated scf accuracy    <       0.00000078 Ry

     iteration #  8     ecut=   100.00 Ry     beta= 0.80
     Davidson diagonalization with overlap
     ethr =  2.37E-09,  avg # of iterations =  3.0

     total cpu time spent up to now is        7.9 secs

     total energy              =    -920.70464963 Ry
     Harris-Foulkes estimate   =    -920.70464970 Ry
     estimated scf accuracy    <       0.00000019 Ry

     iteration #  9     ecut=   100.00 Ry     beta= 0.80
     Davidson diagonalization with overlap
     ethr =  5.70E-10,  avg # of iterations =  1.2

     total cpu time spent up to now is        8.4 secs

     total energy              =    -920.70464963 Ry
     Harris-Foulkes estimate   =    -920.70464964 Ry
     estimated scf accuracy    <       0.00000002 Ry

     iteration # 10     ecut=   100.00 Ry     beta= 0.80
     Davidson diagonalization with overlap
     ethr =  4.74E-11,  avg # of iterations =  2.0

     total cpu time spent up to now is        8.9 secs

     End of self-consistent calculation

          k = 0.0417 0.0417 0.0417 (  6088 PWs)   bands (ev):

   -74.5702 -36.3448 -36.3448 -36.3448 -12.2623 -11.3987 -11.3987   2.9074
     2.9162   2.9162   4.8596   4.8596   4.9668   5.1818   5.1818   5.1906
     6.3205   6.3770   6.3770  11.0053  11.0053  13.5432  20.3445  21.1206
    21.1206  23.5899  23.6583  23.6583  27.8319  28.3087  28.3087  31.0107
    31.7069  32.5128  32.5128  33.3777  33.4671  33.4671  33.7148  36.4096
    36.4096  36.4866  43.4369  43.4369  43.9861  45.4319  45.4319  45.7471
    46.0213  46.0213  47.3363  47.3363  48.0722  49.2809  49.2809  49.4046
    49.4534  50.5755

     occupation numbers 
     1.0000   1.0000   1.0000   1.0000   1.0000   1.0000   1.0000   1.0000
     1.0000   1.0000   1.0000   1.0000   1.0000   1.0000   1.0000   1.0000
     1.0000   1.0000   1.0000  -0.0000  -0.0000  -0.0000  -0.0000  -0.0000
    -0.0000  -0.0000  -0.0000  -0.0000  -0.0000  -0.0000  -0.0000  -0.0000
    -0.0000  -0.0000  -0.0000  -0.0000  -0.0000  -0.0000  -0.0000  -0.0000
    -0.0000  -0.0000  -0.0000  -0.0000  -0.0000  -0.0000  -0.0000  -0.0000
    -0.0000  -0.0000  -0.0000  -0.0000  -0.0000  -0.0000  -0.0000  -0.0000
    -0.0000  -0.0000

          k = 0.0417 0.0417 0.1250 (  6113 PWs)   bands (ev):

   -74.5702 -36.3511 -36.3445 -36.3445 -12.1943 -11.3958 -11.3077   2.3931
     2.8847   2.8917   4.3098   4.3269   4.8558   4.9236   5.1758   5.1873
     6.3574   7.0510   7.0680  11.0064  11.7597  13.7956  20.3257  20.9044
    21.3296  23.5442  23.6253  24.2148  27.0908  27.6147  28.1707  30.8440
    31.2282  32.9806  33.0092  33.2168  33.4852  33.5791  34.9928  35.9748
    36.0068  36.9264  41.3236  43.8247  44.3243  44.7765  45.3066  45.3170
    45.6989  46.1954  47.1846  48.4828  49.1933  49.3484  49.3867  49.7216
    50.5388  50.5753

     occupation numbers 
     1.0000   1.0000   1.0000   1.0000   1.0000   1.0000   1.0000   1.0000
     1.0000   1.0000   1.0000   1.0000   1.0000   1.0000   1.0000   1.0000
     1.0000   1.0000   1.0000  -0.0000  -0.0000  -0.0000  -0.0000  -0.0000
    -0.0000  -0.0000  -0.0000  -0.0000  -0.0000  -0.0000  -0.0000  -0.0000
    -0.0000  -0.0000  -0.0000  -0.0000  -0.0000  -0.0000  -0.0000  -0.0000
    -0.0000  -0.0000  -0.0000  -0.0000  -0.0000  -0.0000  -0.0000  -0.0000
    -0.0000  -0.0000  -0.0000  -0.0000  -0.0000  -0.0000  -0.0000  -0.0000
    -0.0000  -0.0000

          k = 0.0417 0.0417 0.2083 (  6096 PWs)   bands (ev):

   -74.5701 -36.3619 -36.3439 -36.3439 -12.0999 -11.3908 -11.1096   1.4423
     2.8150   2.8269   3.8014   3.8366   4.5018   4.9243   5.1132   5.1925
     6.3670   7.9001   7.9110  11.0081  12.7080  14.3035  19.8260  21.1893
    21.7084  23.4573  23.5837  25.1142  26.2880  26.6491  27.6345  30.0254
    31.4494  32.6223  32.9546  32.9753  34.3513  34.6729  35.5037  35.5133
    36.4202  37.8758  39.0359  43.5512  44.2776  44.5341  44.8269  45.1541
    46.1820  46.5672  47.2386  48.2744  49.0472  49.1461  50.1154  50.1373
    50.9424  51.0829

     occupation numbers 
     1.0000   1.0000   1.0000   1.0000   1.0000   1.0000   1.0000   1.0000
     1.0000   1.0000   1.0000   1.0000   1.0000   1.0000   1.0000   1.0000
     1.0000   0.8279   0.8026  -0.0000  -0.0000  -0.0000  -0.0000  -0.0000
    -0.0000  -0.0000  -0.0000  -0.0000  -0.0000  -0.0000  -0.0000  -0.0000
    -0.0000  -0.0000  -0.0000  -0.0000  -0.0000  -0.0000  -0.0000  -0.0000
    -0.0000  -0.0000  -0.0000  -0.0000  -0.0000  -0.0000  -0.0000  -0.0000
    -0.0000  -0.0000  -0.0000  -0.0000  -0.0000  -0.0000  -0.0000  -0.0000
    -0.0000  -0.0000

          k = 0.0417 0.0417 0.2917 (  6118 PWs)   bands (ev):

   -74.5700 -36.3745 -36.3433 -36.3433 -12.0224 -11.3849 -10.8162   0.3679
     2.6784   2.7005   3.4927   3.5171   4.2426   4.9312   5.0376   5.1987
     6.3776   8.7108   8.7191  11.0098  13.4638  15.0063  19.1339  21.7894
    22.1770  23.3856  23.5785  25.3270  25.6546  26.4457  27.0860  29.2202
    31.7267  32.0714  32.5804  32.7056  34.4850  34.7327  36.1492  36.4851
    36.6156  38.2559  39.2232  42.5426  43.8312  43.8704  45.1828  45.7198
    46.5110  46.7544  47.2945  47.3953  48.8217  48.9680  49.8359  49.9782
    50.7179  51.5651

     occupation numbers 
     1.0000   1.0000   1.0000   1.0000   1.0000   1.0000   1.0000   1.0000
     1.0000   1.0000   1.0000   1.0000   1.0000   1.0000   1.0000   1.0000
     1.0000  -0.0009  -0.0008  -0.0000  -0.0000  -0.0000  -0.0000  -0.0000
    -0.0000  -0.0000  -0.0000  -0.0000  -0.0000  -0.0000  -0.0000  -0.0000
    -0.0000  -0.0000  -0.0000  -0.0000  -0.0000  -0.0000  -0.0000  -0.0000
    -0.0000  -0.0000  -0.0000  -0.0000  -0.0000  -0.0000  -0.0000  -0.0000
    -0.0000  -0.0000  -0.0000  -0.0000  -0.0000  -0.0000  -0.0000  -0.0000
    -0.0000  -0.0000

          k = 0.0417 0.0417 0.3750 (  6101 PWs)   bands (ev):

   -74.5699 -36.3853 -36.3427 -36.3427 -11.9747 -11.3799 -10.5054  -0.5345
     2.5137   2.5442   3.3556   3.3664   4.0714   4.9376   4.9725   5.2041
     6.3867   9.3596   9.3669  11.0107  13.9666  15.7222  18.4357  22.4607
    22.6230  23.3787  23.6550  24.5951  24.7728  26.6817  27.9066  28.5765
    31.5301  31.8641  32.2614  32.4784  33.5662  34.4269  35.0562  37.7859
    38.1335  39.7132  40.7761  41.8562  42.8418  42.9096  45.3165  45.7199
    46.1750  46.9558  47.0578  47.8655  48.1825  48.4272  49.1694  49.6008
    50.0469  50.7216

     occupation numbers 
     1.0000   1.0000   1.0000   1.0000   1.0000   1.0000   1.0000   1.0000
     1.0000   1.0000   1.0000   1.0000   1.0000   1.0000   1.0000   1.0000
     1.0000  -0.0000  -0.0000  -0.0000  -0.0000  -0.0000  -0.0000  -0.0000
    -0.0000  -0.0000  -0.0000  -0.0000  -0.0000  -0.0000  -0.0000  -0.0000
    -0.0000  -0.0000  -0.0000  -0.0000  -0.0000  -0.0000  -0.0000  -0.0000
    -0.0000  -0.0000  -0.0000  -0.0000  -0.0000  -0.0000  -0.0000  -0.0000
    -0.0000  -0.0000  -0.0000  -0.0000  -0.0000  -0.0000  -0.0000  -0.0000
    -0.0000  -0.0000

          k = 0.0417 0.0417 0.4583 (  6102 PWs)   bands (ev):

   -74.5699 -36.3915 -36.3424 -36.3424 -11.9527 -11.3769 -10.2997  -1.0513
     2.4077   2.4415   3.3094   3.3132   3.9843   4.9353   4.9414   5.2073
     6.3920   9.7260   9.7333  11.0108  14.2277  16.2655  17.8837  22.9355
    22.9725  23.4051  23.8056  24.0743  24.1384  26.4755  28.1780  29.6215
    31.1823  31.6492  31.9667  32.0853  32.4603  34.2678  34.6096  39.3976
    39.8389  40.8033  41.3677  41.4199  41.5702  42.6106  44.7244  45.5148
    45.9883  46.0866  47.1348  47.7035  48.1018  48.4134  49.0500  49.2173
    50.0535  50.2996

     occupation numbers 
     1.0000   1.0000   1.0000   1.0000   1.0000   1.0000   1.0000   1.0000
     1.0000   1.0000   1.0000   1.0000   1.0000   1.0000   1.0000   1.0000
     1.0000  -0.0000  -0.0000  -0.0000  -0.0000  -0.0000  -0.0000  -0.0000
    -0.0000  -0.0000  -0.0000  -0.0000  -0.0000  -0.0000  -0.0000  -0.0000
    -0.0000  -0.0000  -0.0000  -0.0000  -0.0000  -0.0000  -0.0000  -0.0000
    -0.0000  -0.0000  -0.0000  -0.0000  -0.0000  -0.0000  -0.0000  -0.0000
    -0.0000  -0.0000  -0.0000  -0.0000  -0.0000  -0.0000  -0.0000  -0.0000
    -0.0000  -0.0000

          k = 0.0417 0.1250 0.1250 (  6110 PWs)   bands (ev):

   -74.5701 -36.3508 -36.3507 -36.3441 -12.1207 -11.3446 -11.2704   2.3616
     2.3968   2.8677   3.7618   4.1806   4.4850   4.8947   5.0201   5.2690
     6.9799   7.1344   7.4565  11.3772  12.1678  14.0258  20.4349  20.7169
    21.3150  23.4775  24.0530  24.2663  26.3957  27.1095  28.4275  30.5294
    31.5543  32.3084  32.9728  33.3090  33.3527  34.0753  35.4403  36.2179
    36.2316  36.8185  41.3576  42.2951  44.2989  44.5513  44.8081  44.9541
    46.1154  46.7585  47.6117  48.5425  49.2280  49.2336  49.9643  50.4453
    50.7077  50.8825

     occupation numbers 
     1.0000   1.0000   1.0000   1.0000   1.0000   1.0000   1.0000   1.0000
     1.0000   1.0000   1.0000   1.0000   1.0000   1.0000   1.0000   1.0000
     1.0000   1.0000   1.0066  -0.0000  -0.0000  -0.0000  -0.0000  -0.0000
    -0.0000  -0.0000  -0.0000  -0.0000  -0.0000  -0.0000  -0.0000  -0.0000
    -0.0000  -0.0000  -0.0000  -0.0000  -0.0000  -0.0000  -0.0000  -0.0000
    -0.0000  -0.0000  -0.0000  -0.0000  -0.0000  -0.0000  -0.0000  -0.0000
    -0.0000  -0.0000  -0.0000  -0.0000  -0.0000  -0.0000  -0.0000  -0.0000
    -0.0000  -0.0000

          k = 0.0417 0.1250 0.2083 (  6098 PWs)   bands (ev):

   -74.5700 -36.3616 -36.3502 -36.3436 -12.0193 -11.3211 -11.0971   1.4401
     2.3421   2.8100   3.2238   3.7578   4.4101   4.6677   5.0030   5.2865
     7.0542   7.9125   8.1222  11.4879  13.0599  14.4910  19.9705  20.9059
    21.6410  23.3296  24.0775  24.9359  25.8098  26.2851  28.1794  30.5500
    30.9025  32.3186  32.9562  33.0568  33.5245  34.8543  34.9814  35.9598
    37.4590  37.9016  39.4936  42.6022  43.4281  44.3527  44.5419  45.1742
    46.4644  46.9945  47.8409  48.1454  48.8935  48.9915  50.0379  50.8237
    51.0938  51.6150

     occupation numbers 
     1.0000   1.0000   1.0000   1.0000   1.0000   1.0000   1.0000   1.0000
     1.0000   1.0000   1.0000   1.0000   1.0000   1.0000   1.0000   1.0000
     1.0000   0.7988   0.1974  -0.0000  -0.0000  -0.0000  -0.0000  -0.0000
    -0.0000  -0.0000  -0.0000  -0.0000  -0.0000  -0.0000  -0.0000  -0.0000
    -0.0000  -0.0000  -0.0000  -0.0000  -0.0000  -0.0000  -0.0000  -0.0000
    -0.0000  -0.0000  -0.0000  -0.0000  -0.0000  -0.0000  -0.0000  -0.0000
    -0.0000  -0.0000  -0.0000  -0.0000  -0.0000  -0.0000  -0.0000  -0.0000
    -0.0000  -0.0000

          k = 0.0417 0.1250 0.2917 (  6111 PWs)   bands (ev):

   -74.5699 -36.3741 -36.3495 -36.3429 -11.9382 -11.3118 -10.8101   0.3695
     2.2464   2.6900   2.8775   3.4451   4.4017   4.4625   5.0146   5.2466
     7.0665   8.7177   8.8496  11.5152  13.8390  15.1563  19.2625  21.3781
    22.1092  23.1744  24.0494  24.8816  25.2572  26.5055  27.6335  29.9964
    30.9610  31.9477  32.6504  32.7831  33.5096  34.8899  35.4961  36.7656
    37.3135  38.9177  39.4982  42.5857  42.8775  43.9916  44.2377  45.7015
    46.4607  46.8554  47.3028  48.1754  48.5261  48.7495  49.3309  50.5699
    50.8523  51.2033

     occupation numbers 
     1.0000   1.0000   1.0000   1.0000   1.0000   1.0000   1.0000   1.0000
     1.0000   1.0000   1.0000   1.0000   1.0000   1.0000   1.0000   1.0000
     1.0000  -0.0008  -0.0001  -0.0000  -0.0000  -0.0000  -0.0000  -0.0000
    -0.0000  -0.0000  -0.0000  -0.0000  -0.0000  -0.0000  -0.0000  -0.0000
    -0.0000  -0.0000  -0.0000  -0.0000  -0.0000  -0.0000  -0.0000  -0.0000
    -0.0000  -0.0000  -0.0000  -0.0000  -0.0000  -0.0000  -0.0000  -0.0000
    -0.0000  -0.0000  -0.0000  -0.0000  -0.0000  -0.0000  -0.0000  -0.0000
    -0.0000  -0.0000

          k = 0.0417 0.1250 0.3750 (  6115 PWs)   bands (ev):

   -74.5699 -36.3849 -36.3490 -36.3424 -11.8897 -11.3054 -10.5004  -0.5328
     2.1018   2.5377   2.7220   3.2993   4.3047   4.4145   5.0245   5.1960
     7.0753   9.3646   9.4646  11.5241  14.3582  15.8465  18.5644  21.8789
    22.5816  23.0743  24.0250  24.3864  24.5086  27.1776  27.8607  29.3852
    31.1929  31.5467  32.1756  32.4376  32.9929  34.5279  35.7440  36.9956
    38.2005  40.3976  40.8201  41.9635  42.4057  43.2506  44.4465  45.4369
    46.1339  46.4407  47.1753  47.7540  48.1632  48.6520  49.0298  50.1327
    50.4231  50.5032

     occupation numbers 
     1.0000   1.0000   1.0000   1.0000   1.0000   1.0000   1.0000   1.0000
     1.0000   1.0000   1.0000   1.0000   1.0000   1.0000   1.0000   1.0000
     1.0000  -0.0000  -0.0000  -0.0000  -0.0000  -0.0000  -0.0000  -0.0000
    -0.0000  -0.0000  -0.0000  -0.0000  -0.0000  -0.0000  -0.0000  -0.0000
    -0.0000  -0.0000  -0.0000  -0.0000  -0.0000  -0.0000  -0.0000  -0.0000
    -0.0000  -0.0000  -0.0000  -0.0000  -0.0000  -0.0000  -0.0000  -0.0000
    -0.0000  -0.0000  -0.0000  -0.0000  -0.0000  -0.0000  -0.0000  -0.0000
    -0.0000  -0.0000

          k = 0.0417 0.1250 0.4583 (  6106 PWs)   bands (ev):

   -74.5698 -36.3912 -36.3486 -36.3420 -11.8678 -11.3020 -10.2946  -1.0501
     1.9992   2.4358   2.6728   3.2498   4.2285   4.4161   5.0305   5.1636
     7.0802   9.7303   9.8207  11.5262  14.6295  16.3571  18.0301  22.2624
    22.8773  23.0089  23.8137  24.0854  24.2198  26.9489  29.0402  29.4562
    31.0344  31.2563  31.3818  32.1916  32.7196  34.2147  35.0499  38.5502
    39.6880  40.6253  41.2423  41.5781  42.1445  43.0844  44.5108  45.1818
    45.3639  45.8232  47.2797  47.4278  47.6737  48.9004  49.2068  49.8019
    50.0499  50.3498

     occupation numbers 
     1.0000   1.0000   1.0000   1.0000   1.0000   1.0000   1.0000   1.0000
     1.0000   1.0000   1.0000   1.0000   1.0000   1.0000   1.0000   1.0000
     1.0000  -0.0000  -0.0000  -0.0000  -0.0000  -0.0000  -0.0000  -0.0000
    -0.0000  -0.0000  -0.0000  -0.0000  -0.0000  -0.0000  -0.0000  -0.0000
    -0.0000  -0.0000  -0.0000  -0.0000  -0.0000  -0.0000  -0.0000  -0.0000
    -0.0000  -0.0000  -0.0000  -0.0000  -0.0000  -0.0000  -0.0000  -0.0000
    -0.0000  -0.0000  -0.0000  -0.0000  -0.0000  -0.0000  -0.0000  -0.0000
    -0.0000  -0.0000

          k = 0.0417 0.2083 0.2083 (  6117 PWs)   bands (ev):

   -74.5700 -36.3611 -36.3610 -36.3430 -11.9108 -11.1938 -11.0337   1.3328
     1.5640   2.5755   2.7792   3.5383   4.1143   4.7051   4.8110   5.4665
     7.8121   8.0040   8.5691  11.8285  13.8388  14.8661  20.2346  20.2614
    21.9112  23.0779  24.4443  24.9303  25.3055  25.8868  28.6410  29.9904
    31.5883  31.7687  32.7460  32.9176  33.0664  34.2669  35.5276  36.1381
    38.1539  39.1576  39.4036  41.3537  42.9931  43.9227  44.4282  45.6053
    46.7087  46.8345  47.6863  48.2363  48.5578  48.7114  49.3792  50.8038
    51.4494  52.1772

     occupation numbers 
     1.0000   1.0000   1.0000   1.0000   1.0000   1.0000   1.0000   1.0000
     1.0000   1.0000   1.0000   1.0000   1.0000   1.0000   1.0000   1.0000
     0.9766   0.5391  -0.0072  -0.0000  -0.0000  -0.0000  -0.0000  -0.0000
    -0.0000  -0.0000  -0.0000  -0.0000  -0.0000  -0.0000  -0.0000  -0.0000
    -0.0000  -0.0000  -0.0000  -0.0000  -0.0000  -0.0000  -0.0000  -0.0000
    -0.0000  -0.0000  -0.0000  -0.0000  -0.0000  -0.0000  -0.0000  -0.0000
    -0.0000  -0.0000  -0.0000  -0.0000  -0.0000  -0.0000  -0.0000  -0.0000
    -0.0000  -0.0000

          k = 0.0417 0.2083 0.2917 (  6107 PWs)   bands (ev):

   -74.5699 -36.3735 -36.3604 -36.3424 -11.8289 -11.1350 -10.7953   0.3650
     1.4792   2.1034   2.6887   3.2720   4.0371   4.5705   4.8015   5.5528
     7.9043   8.7269   9.1496  11.9625  14.6355  15.4396  19.5053  20.6317
    22.2868  22.8374  24.2427  24.6373  24.9250  26.4402  28.3953  30.0978
    30.9917  31.7521  32.2942  32.6045  33.0602  34.6906  35.5037  36.7531
    37.8954  39.4943  40.3650  41.6919  42.4163  43.5338  44.1629  45.9197
    46.2429  46.7115  47.0080  47.6319  48.1455  48.7961  49.2728  50.0132
    50.4335  51.8692

     occupation numbers 
     1.0000   1.0000   1.0000   1.0000   1.0000   1.0000   1.0000   1.0000
     1.0000   1.0000   1.0000   1.0000   1.0000   1.0000   1.0000   1.0000
     0.8184  -0.0007  -0.0000  -0.0000  -0.0000  -0.0000  -0.0000  -0.0000
    -0.0000  -0.0000  -0.0000  -0.0000  -0.0000  -0.0000  -0.0000  -0.0000
    -0.0000  -0.0000  -0.0000  -0.0000  -0.0000  -0.0000  -0.0000  -0.0000
    -0.0000  -0.0000  -0.0000  -0.0000  -0.0000  -0.0000  -0.0000  -0.0000
    -0.0000  -0.0000  -0.0000  -0.0000  -0.0000  -0.0000  -0.0000  -0.0000
    -0.0000  -0.0000

          k = 0.0417 0.2083 0.3750 (  6111 PWs)   bands (ev):

   -74.5698 -36.3843 -36.3598 -36.3418 -11.7829 -11.1188 -10.4915  -0.5321
     1.4819   1.7896   2.5491   3.1351   4.0192   4.4470   4.8174   5.5729
     7.9158   9.3693   9.6903  12.0160  15.1723  16.0796  18.8025  21.0469
    22.4467  22.8257  24.0130  24.0563  24.6528  27.5346  28.0627  30.3976
    30.4901  31.4564  31.5388  32.3461  33.0620  34.9901  36.0923  36.4428
    38.0137  40.6932  41.0224  41.8447  42.5086  43.0834  43.6791  45.4231
    45.6390  46.2421  46.7400  47.4108  47.7277  48.7956  49.1940  49.3582
    50.2381  51.3382

     occupation numbers 
     1.0000   1.0000   1.0000   1.0000   1.0000   1.0000   1.0000   1.0000
     1.0000   1.0000   1.0000   1.0000   1.0000   1.0000   1.0000   1.0000
     0.7909  -0.0000  -0.0000  -0.0000  -0.0000  -0.0000  -0.0000  -0.0000
    -0.0000  -0.0000  -0.0000  -0.0000  -0.0000  -0.0000  -0.0000  -0.0000
    -0.0000  -0.0000  -0.0000  -0.0000  -0.0000  -0.0000  -0.0000  -0.0000
    -0.0000  -0.0000  -0.0000  -0.0000  -0.0000  -0.0000  -0.0000  -0.0000
    -0.0000  -0.0000  -0.0000  -0.0000  -0.0000  -0.0000  -0.0000  -0.0000
    -0.0000  -0.0000

          k = 0.0417 0.2083 0.4583 (  6120 PWs)   bands (ev):

   -74.5698 -36.3906 -36.3595 -36.3415 -11.7628 -11.1124 -10.2857  -1.0492
     1.4898   1.6269   2.4482   3.0913   4.0154   4.3803   4.8261   5.5712
     7.9208   9.7340  10.0179  12.0355  15.4620  16.5302  18.2941  21.3544
    22.4414  22.7971  23.6574  24.1070  24.3943  27.6772  28.9939  30.1998
    30.4653  30.6067  31.3767  32.1654  33.1688  34.4916  35.5729  37.7141
    39.2239  39.9890  41.6050  41.6592  42.7150  43.0407  43.5779  44.6645
    45.4328  45.8198  46.7279  47.4660  47.5671  48.6967  48.8620  48.9520
    50.5171  51.2002

     occupation numbers 
     1.0000   1.0000   1.0000   1.0000   1.0000   1.0000   1.0000   1.0000
     1.0000   1.0000   1.0000   1.0000   1.0000   1.0000   1.0000   1.0000
     0.7783  -0.0000  -0.0000  -0.0000  -0.0000  -0.0000  -0.0000  -0.0000
    -0.0000  -0.0000  -0.0000  -0.0000  -0.0000  -0.0000  -0.0000  -0.0000
    -0.0000  -0.0000  -0.0000  -0.0000  -0.0000  -0.0000  -0.0000  -0.0000
    -0.0000  -0.0000  -0.0000  -0.0000  -0.0000  -0.0000  -0.0000  -0.0000
    -0.0000  -0.0000  -0.0000  -0.0000  -0.0000  -0.0000  -0.0000  -0.0000
    -0.0000  -0.0000

          k = 0.0417 0.2917 0.2917 (  6104 PWs)   bands (ev):

   -74.5698 -36.3729 -36.3728 -36.3417 -11.7522 -10.8932 -10.7328   0.2154
     0.6000   1.5939   2.6557   3.0267   3.8846   4.6058   4.6522   5.7877
     8.6440   8.8003   9.5865  12.1867  15.5590  15.8426  19.7910  19.8874
    22.2711  22.7327  23.9936  24.1144  25.1833  26.6231  28.9132  29.5303
    31.0659  31.4511  32.2804  32.3248  33.2883  34.4935  36.3118  36.4110
    37.8232  39.9631  40.6848  42.0008  42.0531  43.2517  44.1284  45.3796
    45.9247  46.3068  46.4908  47.0648  47.5048  48.4161  49.1762  49.3345
    50.1458  52.1015

     occupation numbers 
     1.0000   1.0000   1.0000   1.0000   1.0000   1.0000   1.0000   1.0000
     1.0000   1.0000   1.0000   1.0000   1.0000   1.0000   1.0000   1.0000
    -0.0026  -0.0002  -0.0000  -0.0000  -0.0000  -0.0000  -0.0000  -0.0000
    -0.0000  -0.0000  -0.0000  -0.0000  -0.0000  -0.0000  -0.0000  -0.0000
    -0.0000  -0.0000  -0.0000  -0.0000  -0.0000  -0.0000  -0.0000  -0.0000
    -0.0000  -0.0000  -0.0000  -0.0000  -0.0000  -0.0000  -0.0000  -0.0000
    -0.0000  -0.0000  -0.0000  -0.0000  -0.0000  -0.0000  -0.0000  -0.0000
    -0.0000  -0.0000

          k = 0.0417 0.2917 0.3750 (  6097 PWs)   bands (ev):

   -74.5697 -36.3836 -36.3723 -36.3412 -11.7114 -10.8189 -10.4795  -0.5447
     0.4724   1.2640   2.5574   2.8823   3.8339   4.5104   4.6574   5.9132
     8.7214   9.3754  10.0341  12.2875  16.1538  16.4083  19.1151  20.2028
    22.0597  22.7090  23.6668  24.0035  24.9738  27.3252  28.7210  29.7188
    30.4577  31.3408  32.0152  32.2915  33.4536  35.2409  36.0665  36.7685
    37.7177  39.9464  41.6096  41.6970  41.9933  43.5231  43.7282  44.5271
    45.1175  45.4489  46.4971  46.8652  47.4639  47.6393  48.7406  49.2164
    50.7668  51.4764

     occupation numbers 
     1.0000   1.0000   1.0000   1.0000   1.0000   1.0000   1.0000   1.0000
     1.0000   1.0000   1.0000   1.0000   1.0000   1.0000   1.0000   1.0000
    -0.0008  -0.0000  -0.0000  -0.0000  -0.0000  -0.0000  -0.0000  -0.0000
    -0.0000  -0.0000  -0.0000  -0.0000  -0.0000  -0.0000  -0.0000  -0.0000
    -0.0000  -0.0000  -0.0000  -0.0000  -0.0000  -0.0000  -0.0000  -0.0000
    -0.0000  -0.0000  -0.0000  -0.0000  -0.0000  -0.0000  -0.0000  -0.0000
    -0.0000  -0.0000  -0.0000  -0.0000  -0.0000  -0.0000  -0.0000  -0.0000
    -0.0000  -0.0000

          k = 0.0417 0.2917 0.4583 (  6113 PWs)   bands (ev):

   -74.5697 -36.3899 -36.3719 -36.3408 -11.6941 -10.8069 -10.2753  -1.0534
     0.4763   1.0922   2.4626   2.8450   3.8182   4.4493   4.6690   5.9620
     8.7278   9.7381  10.3204  12.3271  16.4961  16.7762  18.6228  20.4633
    21.9676  22.5006  23.4536  24.2519  24.6232  27.9398  28.6385  29.9152
    30.0387  31.2521  31.7210  32.2107  33.6927  34.9475  36.3076  37.0655
    38.8049  39.4663  41.1907  41.4493  42.3924  43.2795  43.6695  44.1992
    44.4382  45.2845  46.4567  46.8461  47.0817  47.7589  48.5279  49.0778
    51.2904  51.4827

     occupation numbers 
     1.0000   1.0000   1.0000   1.0000   1.0000   1.0000   1.0000   1.0000
     1.0000   1.0000   1.0000   1.0000   1.0000   1.0000   1.0000   1.0000
    -0.0007  -0.0000  -0.0000  -0.0000  -0.0000  -0.0000  -0.0000  -0.0000
    -0.0000  -0.0000  -0.0000  -0.0000  -0.0000  -0.0000  -0.0000  -0.0000
    -0.0000  -0.0000  -0.0000  -0.0000  -0.0000  -0.0000  -0.0000  -0.0000
    -0.0000  -0.0000  -0.0000  -0.0000  -0.0000  -0.0000  -0.0000  -0.0000
    -0.0000  -0.0000  -0.0000  -0.0000  -0.0000  -0.0000  -0.0000  -0.0000
    -0.0000  -0.0000

          k = 0.0417 0.3750 0.3750 (  6108 PWs)   bands (ev):

   -74.5696 -36.3831 -36.3830 -36.3406 -11.6747 -10.5234 -10.4415  -0.6915
    -0.2912   0.9501   2.5436   2.6730   3.7645   4.5374   4.5499   6.1285
     9.3358   9.4127  10.4072  12.4162  16.7185  17.0099  19.4161  19.4808
    21.7540  22.4374  23.3964  24.1843  25.0176  27.2606  29.1349  29.3304
    30.0913  31.1570  32.2954  32.7743  33.8361  35.3049  36.3391  37.2010
    37.7867  39.5820  40.8776  41.2876  42.7281  42.9103  43.7921  43.9415
    44.4010  44.7506  45.4734  46.2316  47.0604  47.7956  48.6416  49.3580
    51.4740  51.5962

     occupation numbers 
     1.0000   1.0000   1.0000   1.0000   1.0000   1.0000   1.0000   1.0000
     1.0000   1.0000   1.0000   1.0000   1.0000   1.0000   1.0000   1.0000
    -0.0000  -0.0000  -0.0000  -0.0000  -0.0000  -0.0000  -0.0000  -0.0000
    -0.0000  -0.0000  -0.0000  -0.0000  -0.0000  -0.0000  -0.0000  -0.0000
    -0.0000  -0.0000  -0.0000  -0.0000  -0.0000  -0.0000  -0.0000  -0.0000
    -0.0000  -0.0000  -0.0000  -0.0000  -0.0000  -0.0000  -0.0000  -0.0000
    -0.0000  -0.0000  -0.0000  -0.0000  -0.0000  -0.0000  -0.0000  -0.0000
    -0.0000  -0.0000

          k = 0.0417 0.3750 0.4583 (  6112 PWs)   bands (ev):

   -74.5696 -36.3893 -36.3827 -36.3403 -11.6592 -10.4792 -10.2662  -1.0823
    -0.4214   0.7904   2.4750   2.6172   3.7413   4.4842   4.5584   6.2249
     9.3757   9.7416  10.6560  12.4681  17.0303  17.4069  18.9472  19.6851
    21.6054  22.2050  23.2186  24.4808  24.7927  27.3346  29.0174  29.4724
    30.0134  31.0146  32.4144  32.8886  33.9234  35.4451  36.7271  37.3265
    38.6617  39.4330  40.2250  41.0670  41.8383  42.5159  43.6233  43.8995
    44.2631  44.4416  44.8810  45.6540  47.2507  47.8908  48.9172  49.3093
    51.7402  52.2084

     occupation numbers 
     1.0000   1.0000   1.0000   1.0000   1.0000   1.0000   1.0000   1.0000
     1.0000   1.0000   1.0000   1.0000   1.0000   1.0000   1.0000   1.0000
    -0.0000  -0.0000  -0.0000  -0.0000  -0.0000  -0.0000  -0.0000  -0.0000
    -0.0000  -0.0000  -0.0000  -0.0000  -0.0000  -0.0000  -0.0000  -0.0000
    -0.0000  -0.0000  -0.0000  -0.0000  -0.0000  -0.0000  -0.0000  -0.0000
    -0.0000  -0.0000  -0.0000  -0.0000  -0.0000  -0.0000  -0.0000  -0.0000
    -0.0000  -0.0000  -0.0000  -0.0000  -0.0000  -0.0000  -0.0000  -0.0000
    -0.0000  -0.0000

          k = 0.0417 0.4583 0.4583 (  6124 PWs)   bands (ev):

   -74.5695 -36.3889 -36.3889 -36.3400 -11.6445 -10.2674 -10.2566  -1.2003
    -0.8310   0.6351   2.4784   2.4926   3.7150   4.4995   4.5006   6.3486
     9.7380   9.7481  10.8841  12.5253  17.2721  17.8849  19.1639  19.1738
    21.4146  22.0174  23.0544  24.6892  24.8124  26.9630  29.2411  29.2616
    30.1286  30.8502  32.6447  33.4905  33.7474  35.7537  37.1207  38.0943
    38.8792  39.4873  39.9590  40.3315  41.0719  42.2913  42.5786  42.8542
    43.9772  44.0375  45.0761  45.3421  47.3603  47.9522  49.2821  49.4009
    51.8341  51.9545

     occupation numbers 
     1.0000   1.0000   1.0000   1.0000   1.0000   1.0000   1.0000   1.0000
     1.0000   1.0000   1.0000   1.0000   1.0000   1.0000   1.0000   1.0000
    -0.0000  -0.0000  -0.0000  -0.0000  -0.0000  -0.0000  -0.0000  -0.0000
    -0.0000  -0.0000  -0.0000  -0.0000  -0.0000  -0.0000  -0.0000  -0.0000
    -0.0000  -0.0000  -0.0000  -0.0000  -0.0000  -0.0000  -0.0000  -0.0000
    -0.0000  -0.0000  -0.0000  -0.0000  -0.0000  -0.0000  -0.0000  -0.0000
    -0.0000  -0.0000  -0.0000  -0.0000  -0.0000  -0.0000  -0.0000  -0.0000
    -0.0000  -0.0000

          k = 0.1250 0.1250 0.1250 (  6112 PWs)   bands (ev):

   -74.5701 -36.3505 -36.3504 -36.3504 -12.0386 -11.2673 -11.2673   2.3540
     2.3540   2.3938   3.6999   3.6999   3.8943   5.0572   5.0572   5.3337
     7.3147   7.5229   7.5229  12.1677  12.1677  14.2414  20.5328  20.8894
    20.8894  23.5334  24.2697  24.2697  25.9710  27.6426  27.6426  29.8859
    32.1614  32.5288  33.2884  33.2884  33.3519  33.3519  35.6910  35.6910
    36.3884  37.5780  41.8497  41.8497  43.4350  44.1015  44.5432  44.5432
    46.8380  46.8380  48.1830  48.1830  48.8800  49.0849  50.6921  50.6921
    50.8885  51.8242

     occupation numbers 
     1.0000   1.0000   1.0000   1.0000   1.0000   1.0000   1.0000   1.0000
     1.0000   1.0000   1.0000   1.0000   1.0000   1.0000   1.0000   1.0000
     1.0008   1.0139   1.0139  -0.0000  -0.0000  -0.0000  -0.0000  -0.0000
    -0.0000  -0.0000  -0.0000  -0.0000  -0.0000  -0.0000  -0.0000  -0.0000
    -0.0000  -0.0000  -0.0000  -0.0000  -0.0000  -0.0000  -0.0000  -0.0000
    -0.0000  -0.0000  -0.0000  -0.0000  -0.0000  -0.0000  -0.0000  -0.0000
    -0.0000  -0.0000  -0.0000  -0.0000  -0.0000  -0.0000  -0.0000  -0.0000
    -0.0000  -0.0000

          k = 0.1250 0.1250 0.2083 (  6101 PWs)   bands (ev):

   -74.5700 -36.3613 -36.3499 -36.3498 -11.9252 -11.2619 -11.0874   1.4387
     2.3314   2.3364   3.2063   3.2157   3.8074   4.9242   5.1131   5.3717
     7.4337   8.0913   8.1722  12.1668  13.2080  14.6725  20.0963  20.9441
    21.2005  23.2718  24.2792  24.7976  25.8344  26.6103  27.6788  29.8374
    31.6120  32.0754  33.1754  33.2047  33.6205  34.3232  35.3083  35.3282
    37.1063  38.9726  40.0137  42.5057  43.4259  43.8213  44.2930  44.3033
    46.9057  46.9552  47.7734  48.1172  48.6544  48.7957  50.7193  50.7784
    51.3299  52.1242

     occupation numbers 
     1.0000   1.0000   1.0000   1.0000   1.0000   1.0000   1.0000   1.0000
     1.0000   1.0000   1.0000   1.0000   1.0000   1.0000   1.0000   1.0000
     1.0049   0.2769   0.0929  -0.0000  -0.0000  -0.0000  -0.0000  -0.0000
    -0.0000  -0.0000  -0.0000  -0.0000  -0.0000  -0.0000  -0.0000  -0.0000
    -0.0000  -0.0000  -0.0000  -0.0000  -0.0000  -0.0000  -0.0000  -0.0000
    -0.0000  -0.0000  -0.0000  -0.0000  -0.0000  -0.0000  -0.0000  -0.0000
    -0.0000  -0.0000  -0.0000  -0.0000  -0.0000  -0.0000  -0.0000  -0.0000
    -0.0000  -0.0000

          k = 0.1250 0.1250 0.2917 (  6112 PWs)   bands (ev):

   -74.5699 -36.3738 -36.3492 -36.3492 -11.8363 -11.2557 -10.8041   0.3712
     2.2212   2.2734   2.8552   2.8659   3.8126   4.7672   5.1364   5.3519
     7.4532   8.8187   8.8885  12.1645  14.0623  15.2964  19.3756  21.3246
    21.5940  23.0238  24.2589  24.7825  25.6367  26.5064  27.3138  30.2384
    30.7997  31.6167  32.8358  32.9875  33.6706  34.1058  35.5536  36.4845
    37.9570  38.4903  40.5248  42.6813  42.9224  43.6876  44.2649  44.5352
    46.3121  46.7136  47.0448  48.2727  48.3656  48.6143  50.0715  50.7287
    50.7774  51.5749

     occupation numbers 
     1.0000   1.0000   1.0000   1.0000   1.0000   1.0000   1.0000   1.0000
     1.0000   1.0000   1.0000   1.0000   1.0000   1.0000   1.0000   1.0000
     1.0063  -0.0001  -0.0000  -0.0000  -0.0000  -0.0000  -0.0000  -0.0000
    -0.0000  -0.0000  -0.0000  -0.0000  -0.0000  -0.0000  -0.0000  -0.0000
    -0.0000  -0.0000  -0.0000  -0.0000  -0.0000  -0.0000  -0.0000  -0.0000
    -0.0000  -0.0000  -0.0000  -0.0000  -0.0000  -0.0000  -0.0000  -0.0000
    -0.0000  -0.0000  -0.0000  -0.0000  -0.0000  -0.0000  -0.0000  -0.0000
    -0.0000  -0.0000

          k = 0.1250 0.1250 0.3750 (  6106 PWs)   bands (ev):

   -74.5698 -36.3846 -36.3487 -36.3486 -11.7850 -11.2504 -10.4955  -0.5312
     2.0579   2.1685   2.6676   2.7287   3.8208   4.6412   5.1506   5.3125
     7.4648   9.4355   9.4977  12.1603  14.6188  15.9550  18.6808  21.6560
    22.0144  22.9396  23.9910  24.4875  25.0645  26.7552  27.9460  30.2019
    30.5950  31.2433  32.2975  32.4785  33.3716  33.7071  36.5038  36.6922
    38.1090  39.9750  41.5926  42.1122  42.5848  43.0757  44.3665  44.5684
    45.5574  46.3271  47.0733  47.7900  48.2543  48.7127  49.5103  49.9840
    50.6010  50.6921

     occupation numbers 
     1.0000   1.0000   1.0000   1.0000   1.0000   1.0000   1.0000   1.0000
     1.0000   1.0000   1.0000   1.0000   1.0000   1.0000   1.0000   1.0000
     1.0073  -0.0000  -0.0000  -0.0000  -0.0000  -0.0000  -0.0000  -0.0000
    -0.0000  -0.0000  -0.0000  -0.0000  -0.0000  -0.0000  -0.0000  -0.0000
    -0.0000  -0.0000  -0.0000  -0.0000  -0.0000  -0.0000  -0.0000  -0.0000
    -0.0000  -0.0000  -0.0000  -0.0000  -0.0000  -0.0000  -0.0000  -0.0000
    -0.0000  -0.0000  -0.0000  -0.0000  -0.0000  -0.0000  -0.0000  -0.0000
    -0.0000  -0.0000

          k = 0.1250 0.1250 0.4583 (  6112 PWs)   bands (ev):

   -74.5698 -36.3908 -36.3483 -36.3483 -11.7624 -11.2472 -10.2895  -1.0488
     1.9483   2.0813   2.6052   2.6881   3.8261   4.5718   5.1587   5.2842
     7.4708   9.7921   9.8513  12.1564  14.9069  16.4299  18.1682  21.7986
    22.3935  22.9823  23.4932  24.2927  24.9715  26.5479  29.4227  29.8996
    30.7223  31.0291  31.1015  32.2540  33.2419  33.4886  35.7470  37.8773
    39.6890  40.8885  41.3857  41.6615  42.0209  43.0720  43.7343  44.8888
    45.4298  46.0591  47.1204  47.3587  47.8864  49.0219  49.1587  49.7668
    49.9346  50.5571

     occupation numbers 
     1.0000   1.0000   1.0000   1.0000   1.0000   1.0000   1.0000   1.0000
     1.0000   1.0000   1.0000   1.0000   1.0000   1.0000   1.0000   1.0000
     1.0079  -0.0000  -0.0000  -0.0000  -0.0000  -0.0000  -0.0000  -0.0000
    -0.0000  -0.0000  -0.0000  -0.0000  -0.0000  -0.0000  -0.0000  -0.0000
    -0.0000  -0.0000  -0.0000  -0.0000  -0.0000  -0.0000  -0.0000  -0.0000
    -0.0000  -0.0000  -0.0000  -0.0000  -0.0000  -0.0000  -0.0000  -0.0000
    -0.0000  -0.0000  -0.0000  -0.0000  -0.0000  -0.0000  -0.0000  -0.0000
    -0.0000  -0.0000

          k = 0.1250 0.2083 0.2083 (  6104 PWs)   bands (ev):

   -74.5699 -36.3608 -36.3606 -36.3493 -11.7953 -11.1491 -11.0303   1.3373
     1.5556   2.3007   2.6010   3.0762   3.3933   5.0331   5.0848   5.5041
     8.0008   8.2275   8.5861  12.6654  13.8374  15.0299  20.2821  20.3847
    21.3144  22.9817  24.5202  24.9078  25.9139  26.0945  27.8222  29.2810
    31.6325  31.9932  33.1252  33.1337  33.4763  34.3487  35.1403  35.5216
    37.3881  40.0547  40.2841  41.6022  43.1316  43.9490  44.1601  44.1642
    46.6384  46.9057  47.1922  48.0562  48.3323  48.5204  50.0926  51.0485
    51.3691  52.1918

     occupation numbers 
     1.0000   1.0000   1.0000   1.0000   1.0000   1.0000   1.0000   1.0000
     1.0000   1.0000   1.0000   1.0000   1.0000   1.0000   1.0000   1.0000
     0.5491   0.0165  -0.0059  -0.0000  -0.0000  -0.0000  -0.0000  -0.0000
    -0.0000  -0.0000  -0.0000  -0.0000  -0.0000  -0.0000  -0.0000  -0.0000
    -0.0000  -0.0000  -0.0000  -0.0000  -0.0000  -0.0000  -0.0000  -0.0000
    -0.0000  -0.0000  -0.0000  -0.0000  -0.0000  -0.0000  -0.0000  -0.0000
    -0.0000  -0.0000  -0.0000  -0.0000  -0.0000  -0.0000  -0.0000  -0.0000
    -0.0000  -0.0000

          k = 0.1250 0.2083 0.2917 (  6091 PWs)   bands (ev):

   -74.5698 -36.3732 -36.3600 -36.3486 -11.6988 -11.1060 -10.7900   0.3671
     1.4768   2.0816   2.2836   2.7831   3.3264   4.9554   5.1101   5.5815
     8.1094   8.8573   9.1631  12.7832  14.6828  15.5613  19.5796  20.6262
    21.5807  22.8009  24.3592  24.8986  25.3637  26.4785  27.7619  29.4492
    31.1956  31.5036  32.7308  33.0327  33.4507  34.3303  35.2031  36.4229
    38.5481  38.7585  41.2962  42.1400  42.6034  43.5897  43.9994  44.5220
    45.9074  46.4130  46.8462  47.4793  48.2580  48.3256  49.6089  50.2870
    51.1972  51.7435

     occupation numbers 
     1.0000   1.0000   1.0000   1.0000   1.0000   1.0000   1.0000   1.0000
     1.0000   1.0000   1.0000   1.0000   1.0000   1.0000   1.0000   1.0000
     0.2292  -0.0001  -0.0000  -0.0000  -0.0000  -0.0000  -0.0000  -0.0000
    -0.0000  -0.0000  -0.0000  -0.0000  -0.0000  -0.0000  -0.0000  -0.0000
    -0.0000  -0.0000  -0.0000  -0.0000  -0.0000  -0.0000  -0.0000  -0.0000
    -0.0000  -0.0000  -0.0000  -0.0000  -0.0000  -0.0000  -0.0000  -0.0000
    -0.0000  -0.0000  -0.0000  -0.0000  -0.0000  -0.0000  -0.0000  -0.0000
    -0.0000  -0.0000

          k = 0.1250 0.2083 0.3750 (  6108 PWs)   bands (ev):

   -74.5697 -36.3840 -36.3595 -36.3481 -11.6472 -11.0941 -10.4866  -0.5304
     1.4821   1.7823   2.1444   2.6249   3.3223   4.8638   5.1309   5.6012
     8.1270   9.4631   9.7022  12.8139  15.2667  16.1558  18.8916  20.8704
    21.8477  22.8333  23.8033  24.5861  25.1473  26.8575  28.1521  29.8411
    30.8314  30.9875  32.0496  32.7805  33.3584  34.0543  36.0238  37.1600
    37.9963  40.1856  41.6189  42.1347  42.3988  43.1109  43.7671  44.4262
    45.2498  46.1841  46.6648  47.1494  48.0992  48.2935  49.3139  49.5457
    50.6813  51.3195

     occupation numbers 
     1.0000   1.0000   1.0000   1.0000   1.0000   1.0000   1.0000   1.0000
     1.0000   1.0000   1.0000   1.0000   1.0000   1.0000   1.0000   1.0000
     0.1860  -0.0000  -0.0000  -0.0000  -0.0000  -0.0000  -0.0000  -0.0000
    -0.0000  -0.0000  -0.0000  -0.0000  -0.0000  -0.0000  -0.0000  -0.0000
    -0.0000  -0.0000  -0.0000  -0.0000  -0.0000  -0.0000  -0.0000  -0.0000
    -0.0000  -0.0000  -0.0000  -0.0000  -0.0000  -0.0000  -0.0000  -0.0000
    -0.0000  -0.0000  -0.0000  -0.0000  -0.0000  -0.0000  -0.0000  -0.0000
    -0.0000  -0.0000

          k = 0.1250 0.2083 0.4583 (  6113 PWs)   bands (ev):

   -74.5697 -36.3902 -36.3591 -36.3477 -11.6255 -11.0890 -10.2807  -1.0480
     1.4941   1.6194   2.0430   2.5774   3.3243   4.8101   5.1406   5.5999
     8.1343   9.8164  10.0289  12.8217  15.5756  16.5629  18.4170  20.9785
    22.1659  22.8435  23.2749  24.4085  25.1060  26.7925  29.2729  30.0589
    30.4369  30.7250  31.2804  32.6168  33.2873  33.8141  36.3294  37.1735
    39.3525  40.9197  41.2009  41.7331  42.0564  42.8950  43.6042  44.3139
    45.2661  45.9847  46.5271  47.1518  47.9980  48.2573  48.9660  49.2249
    50.5624  51.0131

     occupation numbers 
     1.0000   1.0000   1.0000   1.0000   1.0000   1.0000   1.0000   1.0000
     1.0000   1.0000   1.0000   1.0000   1.0000   1.0000   1.0000   1.0000
     0.1691  -0.0000  -0.0000  -0.0000  -0.0000  -0.0000  -0.0000  -0.0000
    -0.0000  -0.0000  -0.0000  -0.0000  -0.0000  -0.0000  -0.0000  -0.0000
    -0.0000  -0.0000  -0.0000  -0.0000  -0.0000  -0.0000  -0.0000  -0.0000
    -0.0000  -0.0000  -0.0000  -0.0000  -0.0000  -0.0000  -0.0000  -0.0000
    -0.0000  -0.0000  -0.0000  -0.0000  -0.0000  -0.0000  -0.0000  -0.0000
    -0.0000  -0.0000

          k = 0.1250 0.2917 0.2917 (  6097 PWs)   bands (ev):

   -74.5697 -36.3726 -36.3725 -36.3480 -11.6048 -10.8793 -10.7289   0.2200
     0.5961   1.5993   2.2366   2.5926   3.1183   5.0153   5.0361   5.7980
     8.7585   8.9457   9.5962  13.0569  15.5573  15.9352  19.7581  19.9275
    21.6164  22.7455  24.0300  24.8354  25.0444  26.7896  28.2872  29.0402
    30.8350  31.2189  32.7720  32.9388  33.7842  34.2420  35.6818  36.1912
    38.7409  39.7711  40.5989  42.2596  42.5407  43.4691  43.9563  44.5584
    45.0595  46.1873  46.2849  46.8333  47.7380  48.0071  49.3891  50.0596
    50.3883  51.2371

     occupation numbers 
     1.0000   1.0000   1.0000   1.0000   1.0000   1.0000   1.0000   1.0000
     1.0000   1.0000   1.0000   1.0000   1.0000   1.0000   1.0000   1.0000
    -0.0004  -0.0000  -0.0000  -0.0000  -0.0000  -0.0000  -0.0000  -0.0000
    -0.0000  -0.0000  -0.0000  -0.0000  -0.0000  -0.0000  -0.0000  -0.0000
    -0.0000  -0.0000  -0.0000  -0.0000  -0.0000  -0.0000  -0.0000  -0.0000
    -0.0000  -0.0000  -0.0000  -0.0000  -0.0000  -0.0000  -0.0000  -0.0000
    -0.0000  -0.0000  -0.0000  -0.0000  -0.0000  -0.0000  -0.0000  -0.0000
    -0.0000  -0.0000

          k = 0.1250 0.2917 0.3750 (  6107 PWs)   bands (ev):

   -74.5697 -36.3833 -36.3719 -36.3474 -11.5590 -10.8102 -10.4748  -0.5427
     0.4710   1.2729   2.1478   2.4467   3.0668   4.9453   5.0548   5.9201
     8.8516   9.4752  10.0420  13.1582  16.1789  16.4306  19.1552  20.0977
    21.6747  22.7684  23.4663  24.5881  24.9589  27.1968  28.4877  29.2900
    30.5377  30.6716  32.6017  32.9665  33.7135  34.5832  35.6582  37.2031
    38.1821  40.6078  41.0709  41.7520  41.9517  43.3358  43.8758  44.2702
    44.4774  45.4684  46.1995  46.8477  47.2049  47.8116  48.9220  49.6302
    50.3009  51.1332

     occupation numbers 
     1.0000   1.0000   1.0000   1.0000   1.0000   1.0000   1.0000   1.0000
     1.0000   1.0000   1.0000   1.0000   1.0000   1.0000   1.0000   1.0000
    -0.0001  -0.0000  -0.0000  -0.0000  -0.0000  -0.0000  -0.0000  -0.0000
    -0.0000  -0.0000  -0.0000  -0.0000  -0.0000  -0.0000  -0.0000  -0.0000
    -0.0000  -0.0000  -0.0000  -0.0000  -0.0000  -0.0000  -0.0000  -0.0000
    -0.0000  -0.0000  -0.0000  -0.0000  -0.0000  -0.0000  -0.0000  -0.0000
    -0.0000  -0.0000  -0.0000  -0.0000  -0.0000  -0.0000  -0.0000  -0.0000
    -0.0000  -0.0000

          k = 0.1250 0.2917 0.4583 (  6111 PWs)   bands (ev):

   -74.5696 -36.3895 -36.3716 -36.3471 -11.5405 -10.7990 -10.2704  -1.0521
     0.4749   1.1023   2.0560   2.4071   3.0548   4.8981   5.0667   5.9682
     8.8615   9.8255  10.3274  13.1929  16.5235  16.7455  18.7278  20.2315
    21.8827  22.4831  23.2425  24.4662  24.8793  27.3059  28.9757  29.4895
    30.2537  30.4132  32.3316  32.9663  33.6661  34.3743  36.3480  37.2693
    38.9606  40.4148  40.4520  41.7404  42.3861  42.9160  43.6320  43.9392
    44.1621  45.2770  46.2366  46.6882  47.2262  47.6656  48.5976  49.1177
    50.3370  51.3712

     occupation numbers 
     1.0000   1.0000   1.0000   1.0000   1.0000   1.0000   1.0000   1.0000
     1.0000   1.0000   1.0000   1.0000   1.0000   1.0000   1.0000   1.0000
    -0.0001  -0.0000  -0.0000  -0.0000  -0.0000  -0.0000  -0.0000  -0.0000
    -0.0000  -0.0000  -0.0000  -0.0000  -0.0000  -0.0000  -0.0000  -0.0000
    -0.0000  -0.0000  -0.0000  -0.0000  -0.0000  -0.0000  -0.0000  -0.0000
    -0.0000  -0.0000  -0.0000  -0.0000  -0.0000  -0.0000  -0.0000  -0.0000
    -0.0000  -0.0000  -0.0000  -0.0000  -0.0000  -0.0000  -0.0000  -0.0000
    -0.0000  -0.0000

          k = 0.1250 0.3750 0.3750 (  6108 PWs)   bands (ev):

   -74.5696 -36.3828 -36.3827 -36.3469 -11.5181 -10.5179 -10.4370  -0.6886
    -0.2929   0.9609   2.1360   2.2587   2.9821   4.9771   4.9814   6.1314
     9.4283   9.5206  10.4131  13.3030  16.6797  17.0093  19.3381  19.5415
    21.5616  22.4884  23.2604  24.5313  24.8031  27.4098  28.7063  29.1312
    30.2780  30.3481  33.1175  33.1450  34.3528  34.5644  35.6196  37.5307
    38.6617  39.9294  40.8173  41.5625  42.0212  42.5163  43.7923  44.1873
    44.2078  44.7509  45.6852  46.0581  46.7858  47.4887  48.5646  49.7560
    50.2465  51.6498

     occupation numbers 
     1.0000   1.0000   1.0000   1.0000   1.0000   1.0000   1.0000   1.0000
     1.0000   1.0000   1.0000   1.0000   1.0000   1.0000   1.0000   1.0000
    -0.0000  -0.0000  -0.0000  -0.0000  -0.0000  -0.0000  -0.0000  -0.0000
    -0.0000  -0.0000  -0.0000  -0.0000  -0.0000  -0.0000  -0.0000  -0.0000
    -0.0000  -0.0000  -0.0000  -0.0000  -0.0000  -0.0000  -0.0000  -0.0000
    -0.0000  -0.0000  -0.0000  -0.0000  -0.0000  -0.0000  -0.0000  -0.0000
    -0.0000  -0.0000  -0.0000  -0.0000  -0.0000  -0.0000  -0.0000  -0.0000
    -0.0000  -0.0000

          k = 0.1250 0.3750 0.4583 (  6110 PWs)   bands (ev):

   -74.5695 -36.3889 -36.3824 -36.3465 -11.5018 -10.4743 -10.2613  -1.0807
    -0.4219   0.8018   2.0698   2.2061   2.9582   4.9345   4.9932   6.2271
     9.4770   9.8318  10.6608  13.3559  16.9060  17.4099  19.0368  19.6302
    21.6214  22.0671  23.2299  24.5060  24.6924  27.4822  28.8305  29.0997
    30.1203  30.3570  33.2602  33.2859  34.3479  34.5921  36.0337  38.1607
    39.0620  39.5997  40.1260  41.0548  41.4702  43.1272  43.5143  43.8448
    44.0774  44.4253  45.2567  45.4826  46.6089  47.3882  48.9756  49.4968
    50.2175  51.0994

     occupation numbers 
     1.0000   1.0000   1.0000   1.0000   1.0000   1.0000   1.0000   1.0000
     1.0000   1.0000   1.0000   1.0000   1.0000   1.0000   1.0000   1.0000
    -0.0000  -0.0000  -0.0000  -0.0000  -0.0000  -0.0000  -0.0000  -0.0000
    -0.0000  -0.0000  -0.0000  -0.0000  -0.0000  -0.0000  -0.0000  -0.0000
    -0.0000  -0.0000  -0.0000  -0.0000  -0.0000  -0.0000  -0.0000  -0.0000
    -0.0000  -0.0000  -0.0000  -0.0000  -0.0000  -0.0000  -0.0000  -0.0000
[...]
    20.9690  22.9839  23.0366  23.9523  24.9440  27.2790  27.9892  29.3215
    29.8882  31.5445  32.0508  33.1612  34.0614  34.4235  36.8183  38.6751
    39.2170  39.6526  41.1681  41.5571  42.2092  42.4076  43.6399  43.6472
    43.9667  44.1213  45.1595  45.1679  46.3654  46.9795  48.9592  49.5277
    50.3223  51.0820

     occupation numbers 
     1.0000   1.0000   1.0000   1.0000   1.0000   1.0000   1.0000   1.0000
     1.0000   1.0000   1.0000   1.0000   1.0000   1.0000   1.0000   1.0000
    -0.0000  -0.0000  -0.0000  -0.0000  -0.0000  -0.0000  -0.0000  -0.0000
    -0.0000  -0.0000  -0.0000  -0.0000  -0.0000  -0.0000  -0.0000  -0.0000
    -0.0000  -0.0000  -0.0000  -0.0000  -0.0000  -0.0000  -0.0000  -0.0000
    -0.0000  -0.0000  -0.0000  -0.0000  -0.0000  -0.0000  -0.0000  -0.0000
    -0.0000  -0.0000  -0.0000  -0.0000  -0.0000  -0.0000  -0.0000  -0.0000
    -0.0000  -0.0000

          k = 0.2917 0.2917 0.4583 (  6107 PWs)   bands (ev):

   -74.5698 -36.3886 -36.3708 -36.3706 -10.9606 -10.7036 -10.2522  -1.0541
     0.2665   0.7654   1.1037   1.1970   1.6761   5.7422   5.8119   6.0540
     9.6004  10.2632  10.4045  15.5311  16.5120  16.8795  19.1417  19.8389
    21.5016  22.2115  23.1147  24.0863  24.4610  27.2928  28.3801  29.1207
    30.3622  31.2375  31.8222  33.6071  33.9686  35.0133  36.2798  38.8384
    39.2286  39.7411  41.2607  41.8852  41.9884  42.3523  43.1846  43.5191
    43.7551  44.0562  45.0064  45.0970  46.0675  47.4015  47.7576  48.8809
    49.7099  50.8915

     occupation numbers 
     1.0000   1.0000   1.0000   1.0000   1.0000   1.0000   1.0000   1.0000
     1.0000   1.0000   1.0000   1.0000   1.0000   1.0000   1.0000   1.0000
    -0.0000  -0.0000  -0.0000  -0.0000  -0.0000  -0.0000  -0.0000  -0.0000
    -0.0000  -0.0000  -0.0000  -0.0000  -0.0000  -0.0000  -0.0000  -0.0000
    -0.0000  -0.0000  -0.0000  -0.0000  -0.0000  -0.0000  -0.0000  -0.0000
    -0.0000  -0.0000  -0.0000  -0.0000  -0.0000  -0.0000  -0.0000  -0.0000
    -0.0000  -0.0000  -0.0000  -0.0000  -0.0000  -0.0000  -0.0000  -0.0000
    -0.0000  -0.0000

          k = 0.2917 0.3750 0.3750 (  6091 PWs)   bands (ev):

   -74.5698 -36.3818 -36.3817 -36.3705 -10.8689 -10.4889 -10.4207  -0.6769
    -0.3588   0.6102   1.0053   1.3384   1.3453   5.8537   5.8765   6.1485
     9.9857  10.0980  10.4366  15.9536  16.4098  17.0029  19.1880  20.0948
    20.9036  22.5983  23.1538  23.5431  24.4208  27.6612  27.9517  28.9323
    30.3320  31.4676  32.7466  32.9556  34.2165  34.5052  37.5150  38.2443
    39.5392  40.3191  40.7332  41.0614  41.9402  42.6240  42.7919  43.7361
    43.8266  44.0220  44.5534  44.8908  45.8415  46.5041  47.9033  49.4005
    49.5713  50.8605

     occupation numbers 
     1.0000   1.0000   1.0000   1.0000   1.0000   1.0000   1.0000   1.0000
     1.0000   1.0000   1.0000   1.0000   1.0000   1.0000   1.0000   1.0000
    -0.0000  -0.0000  -0.0000  -0.0000  -0.0000  -0.0000  -0.0000  -0.0000
    -0.0000  -0.0000  -0.0000  -0.0000  -0.0000  -0.0000  -0.0000  -0.0000
    -0.0000  -0.0000  -0.0000  -0.0000  -0.0000  -0.0000  -0.0000  -0.0000
    -0.0000  -0.0000  -0.0000  -0.0000  -0.0000  -0.0000  -0.0000  -0.0000
    -0.0000  -0.0000  -0.0000  -0.0000  -0.0000  -0.0000  -0.0000  -0.0000
    -0.0000  -0.0000

          k = 0.2917 0.3750 0.4583 (  6098 PWs)   bands (ev):

   -74.5697 -36.3880 -36.3815 -36.3701 -10.8446 -10.4528 -10.2434  -1.0786
    -0.4615   0.6078   0.8449   1.1725   1.3506   5.8821   5.9193   6.2381
    10.0502  10.3304  10.6801  16.0205  16.3809  17.4399  19.3811  19.8214
    21.2006  21.9858  23.2245  23.6118  23.9674  27.7326  28.1413  28.7266
    30.3090  31.7491  32.5770  33.8048  34.1999  34.8297  36.9123  38.0901
    39.4820  40.2113  40.5447  41.4074  42.2483  42.6304  43.2497  43.4656
    43.5508  44.0187  44.2163  44.6120  45.3533  46.0472  47.1357  49.1566
    49.3739  50.7457

     occupation numbers 
     1.0000   1.0000   1.0000   1.0000   1.0000   1.0000   1.0000   1.0000
     1.0000   1.0000   1.0000   1.0000   1.0000   1.0000   1.0000   1.0000
    -0.0000  -0.0000  -0.0000  -0.0000  -0.0000  -0.0000  -0.0000  -0.0000
    -0.0000  -0.0000  -0.0000  -0.0000  -0.0000  -0.0000  -0.0000  -0.0000
    -0.0000  -0.0000  -0.0000  -0.0000  -0.0000  -0.0000  -0.0000  -0.0000
    -0.0000  -0.0000  -0.0000  -0.0000  -0.0000  -0.0000  -0.0000  -0.0000
    -0.0000  -0.0000  -0.0000  -0.0000  -0.0000  -0.0000  -0.0000  -0.0000
    -0.0000  -0.0000

          k = 0.2917 0.4583 0.4583 (  6084 PWs)   bands (ev):

   -74.5697 -36.3876 -36.3876 -36.3698 -10.8233 -10.2446 -10.2341  -1.1915
    -0.8596   0.6031   0.6919   1.1811   1.1814   5.9351   5.9384   6.3558
    10.3322  10.3470  10.9015  16.1393  16.2964  17.8880  19.6164  19.7894
    20.9874  21.7589  23.3295  23.3348  23.6890  28.0050  28.0625  28.5174
    29.9873  32.2934  33.4148  33.9895  34.1793  35.1211  37.2672  37.3434
    37.8787  40.9202  41.1280  41.7503  42.3693  42.5369  42.9642  43.5490
    43.5672  43.7311  44.0823  44.4291  44.7797  45.2560  46.3424  48.8840
    49.4255  50.9362

     occupation numbers 
     1.0000   1.0000   1.0000   1.0000   1.0000   1.0000   1.0000   1.0000
     1.0000   1.0000   1.0000   1.0000   1.0000   1.0000   1.0000   1.0000
    -0.0000  -0.0000  -0.0000  -0.0000  -0.0000  -0.0000  -0.0000  -0.0000
    -0.0000  -0.0000  -0.0000  -0.0000  -0.0000  -0.0000  -0.0000  -0.0000
    -0.0000  -0.0000  -0.0000  -0.0000  -0.0000  -0.0000  -0.0000  -0.0000
    -0.0000  -0.0000  -0.0000  -0.0000  -0.0000  -0.0000  -0.0000  -0.0000
    -0.0000  -0.0000  -0.0000  -0.0000  -0.0000  -0.0000  -0.0000  -0.0000
    -0.0000  -0.0000

          k = 0.3750 0.3750 0.3750 (  6085 PWs)   bands (ev):

   -74.5697 -36.3813 -36.3812 -36.3812 -10.5766 -10.4129 -10.4129  -0.6704
    -0.6704   0.0013   0.9936   1.0444   1.0444   6.0810   6.0810   6.1924
    10.3353  10.4709  10.4709  16.2386  16.9975  16.9975  19.3314  20.4787
    20.4787  22.6856  22.6856  23.1607  23.9848  27.8453  27.8453  28.5217
    31.1905  32.3721  32.5660  32.5660  34.4900  34.4900  37.8996  38.9793
    38.9793  40.0874  40.0874  41.6325  42.1648  42.1648  42.7149  43.7984
    43.7984  43.9203  44.3106  44.3106  45.5516  45.5517  47.4983  47.4983
    49.2957  51.5401

     occupation numbers 
     1.0000   1.0000   1.0000   1.0000   1.0000   1.0000   1.0000   1.0000
     1.0000   1.0000   1.0000   1.0000   1.0000   1.0000   1.0000   1.0000
    -0.0000  -0.0000  -0.0000  -0.0000  -0.0000  -0.0000  -0.0000  -0.0000
    -0.0000  -0.0000  -0.0000  -0.0000  -0.0000  -0.0000  -0.0000  -0.0000
    -0.0000  -0.0000  -0.0000  -0.0000  -0.0000  -0.0000  -0.0000  -0.0000
    -0.0000  -0.0000  -0.0000  -0.0000  -0.0000  -0.0000  -0.0000  -0.0000
    -0.0000  -0.0000  -0.0000  -0.0000  -0.0000  -0.0000  -0.0000  -0.0000
    -0.0000  -0.0000

          k = 0.3750 0.3750 0.4583 (  6070 PWs)   bands (ev):

   -74.5697 -36.3874 -36.3809 -36.3808 -10.5201 -10.4083 -10.2347  -1.0920
    -0.6662  -0.1051   0.8478   0.8886   1.0394   6.1180   6.1803   6.2671
    10.4258  10.6362  10.7190  16.1340  16.9930  17.5542  19.6119  20.0444
    20.8768  21.9851  22.8200  23.0437  23.7688  27.8210  27.9518  28.3068
    31.3908  32.3676  32.6348  33.7539  34.4567  34.6635  36.8806  38.6450
    39.1204  39.5365  40.4484  41.7221  42.7166  42.8176  43.3097  43.3676
    43.6713  43.9196  43.9268  44.0606  45.0869  45.1649  45.8704  47.3686
    49.2908  51.3599

     occupation numbers 
     1.0000   1.0000   1.0000   1.0000   1.0000   1.0000   1.0000   1.0000
     1.0000   1.0000   1.0000   1.0000   1.0000   1.0000   1.0000   1.0000
    -0.0000  -0.0000  -0.0000  -0.0000  -0.0000  -0.0000  -0.0000  -0.0000
    -0.0000  -0.0000  -0.0000  -0.0000  -0.0000  -0.0000  -0.0000  -0.0000
    -0.0000  -0.0000  -0.0000  -0.0000  -0.0000  -0.0000  -0.0000  -0.0000
    -0.0000  -0.0000  -0.0000  -0.0000  -0.0000  -0.0000  -0.0000  -0.0000
    -0.0000  -0.0000  -0.0000  -0.0000  -0.0000  -0.0000  -0.0000  -0.0000
    -0.0000  -0.0000

          k = 0.3750 0.4583 0.4583 (  6062 PWs)   bands (ev):

   -74.5696 -36.3870 -36.3870 -36.3805 -10.4618 -10.2358 -10.2257  -1.1882
    -0.9571  -0.2487   0.7128   0.8790   0.8825   6.2205   6.2255   6.3588
    10.6709  10.6858  10.9083  15.9946  17.2576  17.8888  19.8848  20.1194
    20.6765  21.8438  22.5269  22.6632  23.7943  27.8699  27.8837  28.0875
    31.4337  33.1324  33.3654  34.0353  34.4187  34.7773  36.6040  37.1502
    38.9189  39.3829  41.3551  42.6572  42.7784  43.0619  43.2791  43.4330
    43.4734  43.6445  43.9245  44.1453  44.4679  44.6890  44.7792  46.4411
    49.3246  51.4314

     occupation numbers 
     1.0000   1.0000   1.0000   1.0000   1.0000   1.0000   1.0000   1.0000
     1.0000   1.0000   1.0000   1.0000   1.0000   1.0000   1.0000   1.0000
    -0.0000  -0.0000  -0.0000  -0.0000  -0.0000  -0.0000  -0.0000  -0.0000
    -0.0000  -0.0000  -0.0000  -0.0000  -0.0000  -0.0000  -0.0000  -0.0000
    -0.0000  -0.0000  -0.0000  -0.0000  -0.0000  -0.0000  -0.0000  -0.0000
    -0.0000  -0.0000  -0.0000  -0.0000  -0.0000  -0.0000  -0.0000  -0.0000
    -0.0000  -0.0000  -0.0000  -0.0000  -0.0000  -0.0000  -0.0000  -0.0000
    -0.0000  -0.0000

          k = 0.4583 0.4583 0.4583 (  6068 PWs)   bands (ev):

   -74.5696 -36.3867 -36.3867 -36.3867 -10.2409 -10.2207 -10.2207  -1.1862
    -1.1862  -0.5582   0.7209   0.7282   0.7282   6.3528   6.3528   6.3665
    10.8976  10.9159  10.9159  15.8309  17.8889  17.8889  20.1574  20.4136
    20.4136  21.9263  21.9263  22.1391  23.9023  27.8095  27.8095  27.8687
    32.0582  34.0997  34.1009  34.1009  34.5924  34.5924  36.1505  36.7944
    36.7944  41.2899  41.2899  42.7829  43.0069  43.1130  43.1260  43.1260
    43.8931  43.9587  43.9587  44.0669  44.0669  44.3829  44.3829  44.5750
    49.1979  51.7601

     occupation numbers 
     1.0000   1.0000   1.0000   1.0000   1.0000   1.0000   1.0000   1.0000
     1.0000   1.0000   1.0000   1.0000   1.0000   1.0000   1.0000   1.0000
    -0.0000  -0.0000  -0.0000  -0.0000  -0.0000  -0.0000  -0.0000  -0.0000
    -0.0000  -0.0000  -0.0000  -0.0000  -0.0000  -0.0000  -0.0000  -0.0000
    -0.0000  -0.0000  -0.0000  -0.0000  -0.0000  -0.0000  -0.0000  -0.0000
    -0.0000  -0.0000  -0.0000  -0.0000  -0.0000  -0.0000  -0.0000  -0.0000
    -0.0000  -0.0000  -0.0000  -0.0000  -0.0000  -0.0000  -0.0000  -0.0000
    -0.0000  -0.0000

     the Fermi energy is     8.0161 ev

!    total energy              =    -920.70464964 Ry
     Harris-Foulkes estimate   =    -920.70464964 Ry
     estimated scf accuracy    <          5.4E-13 Ry

     total all-electron energy =    -33836.923172 Ry

     The total energy is the sum of the following terms:

     one-electron contribution =    -132.63539045 Ry
     hartree contribution      =      81.38708326 Ry
     xc contribution           =     -61.79020227 Ry
     ewald contribution        =    -157.55945303 Ry
     one-center paw contrib.   =    -650.10574919 Ry
      -> PAW hartree energy AE =      27.24395552 Ry
      -> PAW hartree energy PS =     -27.21015107 Ry
      -> PAW xc energy AE      =     -16.84827280 Ry
      -> PAW xc energy PS      =       7.22512873 Ry
      -> total E_H with PAW    =      81.42088770 Ry
      -> total E_XC with PAW   =     -71.41334634 Ry
     smearing contrib. (-TS)   =      -0.00093795 Ry

     convergence has been achieved in  12 iterations

     Forces acting on atoms (cartesian axes, Ry/au):

     atom    1 type  2   force =     0.00000000    0.00000000    0.00000000
     atom    2 type  2   force =     0.00000000    0.00000000    0.00000000
     atom    3 type  2   force =     0.00000000    0.00000000    0.00000000
     atom    4 type  1   force =     0.00000000    0.00000000    0.00000000
     The non-local contrib.  to forces
     atom    1 type  2   force =     0.00000000    0.00000000    0.00000000
     atom    2 type  2   force =     0.00000000    0.00000000    0.00000000
     atom    3 type  2   force =     0.00000000    0.00000000    0.00000000
     atom    4 type  1   force =     0.00000000    0.00000000    0.00000000
     The ionic contribution  to forces
     atom    1 type  2   force =     0.00000000    0.00000000   -0.00000000
     atom    2 type  2   force =     0.00000000   -0.00000000    0.00000000
     atom    3 type  2   force =    -0.00000000    0.00000000    0.00000000
     atom    4 type  1   force =     0.00000000    0.00000000    0.00000000
     The local contribution  to forces
     atom    1 type  2   force =     0.00000000    0.00000000   -0.00000000
     atom    2 type  2   force =     0.00000000   -0.00000000    0.00000000
     atom    3 type  2   force =    -0.00000000    0.00000000    0.00000000
     atom    4 type  1   force =     0.00000000    0.00000000    0.00000000
     The core correction contribution to forces
     atom    1 type  2   force =     0.00000000    0.00000000    0.00000000
     atom    2 type  2   force =     0.00000000    0.00000000    0.00000000
     atom    3 type  2   force =     0.00000000    0.00000000   -0.00000000
     atom    4 type  1   force =    -0.00000000   -0.00000000    0.00000000
     The Hubbard contrib.    to forces
     atom    1 type  2   force =     0.00000000    0.00000000    0.00000000
     atom    2 type  2   force =     0.00000000    0.00000000    0.00000000
     atom    3 type  2   force =     0.00000000    0.00000000    0.00000000
     atom    4 type  1   force =     0.00000000    0.00000000    0.00000000
     The SCF correction term to forces
     atom    1 type  2   force =    -0.00000000    0.00000000   -0.00000000
     atom    2 type  2   force =    -0.00000000   -0.00000000   -0.00000000
     atom    3 type  2   force =    -0.00000000    0.00000000    0.00000000
     atom    4 type  1   force =    -0.00000000    0.00000000    0.00000000

     Total force =     0.000000     Total SCF correction =     0.000000


     Computing stress (Cartesian axis) and pressure

          total   stress  (Ry/bohr**3)                   (kbar)     P=   -0.00
  -0.00000002   0.00000000   0.00000000         -0.00      0.00      0.00
   0.00000000  -0.00000002   0.00000000          0.00     -0.00      0.00
   0.00000000   0.00000000  -0.00000002          0.00      0.00     -0.00

     kinetic stress (kbar)  30395.26      0.00      0.00
                                0.00  30395.26      0.00
                                0.00      0.00  30395.26

     local   stress (kbar)  -9753.55     -0.00      0.00
                               -0.00  -9753.55      0.00
                                0.00      0.00  -9753.55

     nonloc. stress (kbar)  -3999.09      0.00      0.00
                                0.00  -3999.09      0.00
                                0.00      0.00  -3999.09

     hartree stress (kbar)  11038.15      0.00     -0.00
                                0.00  11038.15     -0.00
                               -0.00     -0.00  11038.15

     exc-cor stress (kbar)   3359.58      0.00      0.00
                                0.00   3359.58      0.00
                                0.00      0.00   3359.58

     corecor stress (kbar)  -9671.30      0.00     -0.00
                                0.00  -9671.30      0.00
                               -0.00      0.00  -9671.30

     ewald   stress (kbar) -21369.06      0.00     -0.00
                                0.00 -21369.06     -0.00
                               -0.00     -0.00 -21369.06

     hubbard stress (kbar)      0.00      0.00      0.00
                                0.00      0.00      0.00
                                0.00      0.00      0.00

     london  stress (kbar)      0.00      0.00      0.00
                                0.00      0.00      0.00
                                0.00      0.00      0.00

     DFT-D3  stress (kbar)      0.00      0.00      0.00
                                0.00      0.00      0.00
                                0.00      0.00      0.00

     XDM     stress (kbar)      0.00      0.00      0.00
                                0.00      0.00      0.00
                                0.00      0.00      0.00

     dft-nl  stress (kbar)      0.00      0.00      0.00
                                0.00      0.00      0.00
                                0.00      0.00      0.00

     TS-vdW  stress (kbar)      0.00      0.00      0.00
                                0.00      0.00      0.00
                                0.00      0.00      0.00



     init_run     :      1.71s CPU      1.78s WALL (       2 calls)
     electrons    :     25.62s CPU     27.98s WALL (       5 calls)
     update_pot   :      2.59s CPU      2.61s WALL (       3 calls)
     forces       :      1.88s CPU      1.89s WALL (       5 calls)
     stress       :      5.15s CPU      5.16s WALL (       5 calls)

     Called by init_run:
     wfcinit      :      0.29s CPU      0.31s WALL (       2 calls)
     wfcinit:atom :      0.00s CPU      0.00s WALL (      14 calls)
     wfcinit:wfcr :      0.25s CPU      0.25s WALL (      14 calls)
     potinit      :      0.33s CPU      0.34s WALL (       2 calls)
     hinit0       :      1.00s CPU      1.02s WALL (       2 calls)

     Called by electrons:
     c_bands      :     20.13s CPU     22.18s WALL (      49 calls)
     sum_band     :      2.86s CPU      2.94s WALL (      49 calls)
     v_of_rho     :      0.37s CPU      0.37s WALL (      51 calls)
     v_h          :      0.02s CPU      0.02s WALL (      51 calls)
     v_xc         :      0.42s CPU      0.42s WALL (      61 calls)
     newd         :      0.12s CPU      0.12s WALL (      51 calls)
     PAW_pot      :      2.46s CPU      2.60s WALL (      54 calls)
     mix_rho      :      0.08s CPU      0.08s WALL (      49 calls)

     Called by c_bands:
     init_us_2    :      0.29s CPU      0.31s WALL (     791 calls)
     cegterg      :     18.08s CPU     19.87s WALL (     343 calls)

     Called by sum_band:
     sum_band:bec :      0.01s CPU      0.01s WALL (     364 calls)
     addusdens    :      0.12s CPU      0.14s WALL (      49 calls)

     Called by *egterg:
     h_psi        :      9.90s CPU     10.46s WALL (    1057 calls)
     s_psi        :      0.27s CPU      0.36s WALL (    1057 calls)
     g_psi        :      0.10s CPU      0.10s WALL (     700 calls)
     cdiaghg      :      3.97s CPU      4.22s WALL (    1001 calls)
     cegterg:over :      1.62s CPU      2.08s WALL (     700 calls)
     cegterg:upda :      1.01s CPU      1.06s WALL (     700 calls)
     cegterg:last :      0.63s CPU      0.64s WALL (     364 calls)
     cdiaghg:chol :      0.30s CPU      0.39s WALL (    1001 calls)
     cdiaghg:inve :      0.06s CPU      0.06s WALL (    1001 calls)
     cdiaghg:para :      0.58s CPU      0.63s WALL (    2002 calls)

     Called by h_psi:
     h_psi:pot    :      9.74s CPU     10.20s WALL (    1057 calls)
     h_psi:calbec :      0.46s CPU      0.63s WALL (    1057 calls)
     vloc_psi     :      8.93s CPU      9.21s WALL (    1057 calls)
     add_vuspsi   :      0.34s CPU      0.35s WALL (    1057 calls)

     General routines
     calbec       :      0.72s CPU      0.90s WALL (    1596 calls)
     fft          :      0.16s CPU      0.16s WALL (     692 calls)
     ffts         :      0.02s CPU      0.02s WALL (      49 calls)
     fftw         :      9.66s CPU      9.94s WALL (  110964 calls)

     Parallel routines
     fft_scatt_xy :      1.26s CPU      1.29s WALL (  111705 calls)
     fft_scatt_yz :      3.56s CPU      3.67s WALL (  111705 calls)

     PAW routines
     PAW_pot      :      2.46s CPU      2.60s WALL (      54 calls)
     PAW_symme    :      0.03s CPU      0.04s WALL (     103 calls)

     PWSCF        :     38.34s CPU     40.96s WALL


   This run was terminated on:  22:19:28  29Jan2021            

=------------------------------------------------------------------------------=
   JOB DONE.
=------------------------------------------------------------------------------=
