
     Program PHONON v.6.4 starts on 27Jan2021 at  8:18:10 

     This program is part of the open-source Quantum ESPRESSO suite
     for quantum simulation of materials; please cite
         "P. Giannozzi et al., J. Phys.:Condens. Matter 21 395502 (2009);
         "P. Giannozzi et al., J. Phys.:Condens. Matter 29 465901 (2017);
          URL http://www.quantum-espresso.org", 
     in publications or presentations arising from this work. More details at
     http://www.quantum-espresso.org/quote

     Parallel version (MPI), running on    64 processors

     MPI processes distributed on     1 nodes
     K-points division:     npool     =       8
     R & G space division:  proc/nbgrp/npool/nimage =       8


     Dynamical matrices for q-points given in input
     (   4q-points):
       N         xq(1)         xq(2)         xq(3) 
       1   0.000000000   0.000000000   0.000000000
       2   0.500000000   0.000000000   0.000000000
       3   0.500000000   0.500000000   0.000000000
       4   0.500000000   0.500000000   0.500000000

     Reading data from directory:
     /public3/home/sc55341/ReO3_phonon/ps_GHH_PZ_kp_8,8,8,1,1,1_kBar_0.2_dg_0.02/ReO3_scf/ReO3.save/

     IMPORTANT: XC functional enforced from input :
     Exchange-correlation      = PZ ( 1  1  0  0 0 0)
     Any further DFT definition will be discarded
     Please, verify this is what you really want


     Parallelization info
     --------------------
     sticks:   dense  smooth     PW     G-vecs:    dense   smooth      PW
     Min         233     233     64                 7532     7532    1130
     Max         235     235     65                 7535     7535    1131
     Sum        1869    1869    517                60269    60269    9045

  autoval = -.1633E+00
     Irreps are as follows:

                     mode #   1
                     (  -0.18250  -0.00000   ) 
                     (   0.07359   0.00000   ) 
                     (   0.15980   0.00000   ) 
                     (  -0.18250  -0.00000   ) 
                     (   0.35376   0.00000   ) 
                     (   0.03324   0.00000   ) 
                     (  -0.87730  -0.00000   ) 
                     (   0.07359   0.00000   ) 
                     (   0.03324   0.00000   ) 
                     (  -0.00000   0.00000   ) 
                     (  -0.00000   0.00000   ) 
                     (  -0.00000   0.00000   ) 
  autoval = -.1633E+00
     Irreps are as follows:

                     mode #   2
                     (  -0.07473  -0.00000   ) 
                     (  -0.18505  -0.00000   ) 
                     (  -0.00291  -0.00000   ) 
                     (  -0.07473  -0.00000   ) 
                     (  -0.88955  -0.00000   ) 
                     (  -0.00061  -0.00000   ) 
                     (  -0.35923  -0.00000   ) 
                     (  -0.18505  -0.00000   ) 
                     (  -0.00061  -0.00000   ) 
                     (  -0.00000   0.00000   ) 
                     (  -0.00000   0.00000   ) 
                     (  -0.00000   0.00000   ) 
  autoval = -.1633E+00
     Irreps are as follows:

                     mode #   3
                     (  -0.03060  -0.00000   ) 
                     (   0.01300  -0.00000   ) 
                     (  -0.94594  -0.00000   ) 
                     (  -0.03060  -0.00000   ) 
                     (   0.06250  -0.00000   ) 
                     (  -0.19678  -0.00000   ) 
                     (  -0.14710  -0.00000   ) 
                     (   0.01300  -0.00000   ) 
                     (  -0.19678  -0.00000   ) 
                     (  -0.00000  -0.00000   ) 
                     (  -0.00000  -0.00000   ) 
                     (  -0.00000  -0.00000   ) 
  autoval = -.9230E-01
     Irreps are as follows:

                     mode #   4
                     (  -0.00530  -0.00000   ) 
                     (   0.13477  -0.00000   ) 
                     (  -0.00000  -0.00000   ) 
                     (   0.00530  -0.00000   ) 
                     (   0.00000  -0.00000   ) 
                     (   0.69412  -0.00000   ) 
                     (   0.00000  -0.00000   ) 
                     (  -0.13477  -0.00000   ) 
                     (  -0.69412  -0.00000   ) 
                     (  -0.00000  -0.00000   ) 
                     (  -0.00000  -0.00000   ) 
                     (  -0.00000  -0.00000   ) 
  autoval = -.9230E-01
     Irreps are as follows:

                     mode #   5
                     (  -0.03426  -0.00000   ) 
                     (   0.69328   0.00000   ) 
                     (   0.00000   0.00000   ) 
                     (   0.03426   0.00000   ) 
                     (   0.00000   0.00000   ) 
                     (  -0.13487  -0.00000   ) 
                     (  -0.00000  -0.00000   ) 
                     (  -0.69328  -0.00000   ) 
                     (   0.13487   0.00000   ) 
                     (  -0.00000   0.00000   ) 
                     (  -0.00000   0.00000   ) 
                     (  -0.00000   0.00000   ) 
  autoval = -.9230E-01
     Irreps are as follows:

                     mode #   6
                     (  -0.70626  -0.00000   ) 
                     (  -0.03464  -0.00000   ) 
                     (  -0.00000  -0.00000   ) 
                     (   0.70626  -0.00000   ) 
                     (   0.00000  -0.00000   ) 
                     (   0.00133  -0.00000   ) 
                     (  -0.00000  -0.00000   ) 
                     (   0.03464  -0.00000   ) 
                     (  -0.00133  -0.00000   ) 
                     (  -0.00000  -0.00000   ) 
                     (  -0.00000  -0.00000   ) 
                     (  -0.00000  -0.00000   ) 
  autoval = 0.4516E-02
     Irreps are as follows:

                     mode #   7
                     (  -0.00000  -0.00000   ) 
                     (  -0.00000  -0.00000   ) 
                     (  -0.00000  -0.00000   ) 
                     (  -0.00000  -0.00000   ) 
                     (  -0.00000  -0.00000   ) 
                     (  -0.00000  -0.00000   ) 
                     (  -0.00000  -0.00000   ) 
                     (  -0.00000  -0.00000   ) 
                     (  -0.00000  -0.00000   ) 
                     (  -0.00000  -0.00000   ) 
                     (  -0.00000  -0.00000   ) 
                     (  -1.00000  -0.00000   ) 
  autoval = 0.4516E-02
     Irreps are as follows:

                     mode #   8
                     (  -0.00000   0.00000   ) 
                     (  -0.00000   0.00000   ) 
                     (  -0.00000   0.00000   ) 
                     (  -0.00000   0.00000   ) 
                     (  -0.00000   0.00000   ) 
                     (  -0.00000   0.00000   ) 
                     (  -0.00000   0.00000   ) 
                     (  -0.00000   0.00000   ) 
                     (  -0.00000   0.00000   ) 
                     (  -0.00000   0.00000   ) 
                     (  -1.00000  -0.00000   ) 
                     (  -0.00000  -0.00000   ) 
  autoval = 0.4516E-02
     Irreps are as follows:

                     mode #   9
                     (  -0.00000   0.00000   ) 
                     (  -0.00000   0.00000   ) 
                     (  -0.00000   0.00000   ) 
                     (  -0.00000   0.00000   ) 
                     (  -0.00000   0.00000   ) 
                     (  -0.00000   0.00000   ) 
                     (  -0.00000   0.00000   ) 
                     (  -0.00000   0.00000   ) 
                     (  -0.00000   0.00000   ) 
                     (  -1.00000  -0.00000   ) 
                     (  -0.00000  -0.00000   ) 
                     (  -0.00000  -0.00000   ) 
  autoval = 0.1025E+01
     Irreps are as follows:

                     mode #  10
                     (  -0.00000  -0.00000   ) 
                     (   0.00000   0.00000   ) 
                     (  -0.28223  -0.00000   ) 
                     (  -0.00000  -0.00000   ) 
                     (  -0.00000  -0.00000   ) 
                     (   0.67836   0.00000   ) 
                     (   0.00000   0.00000   ) 
                     (   0.00000  -0.00000   ) 
                     (   0.67836   0.00000   ) 
                     (  -0.00000   0.00000   ) 
                     (  -0.00000   0.00000   ) 
                     (  -0.00000   0.00000   ) 
  autoval = 0.1025E+01
     Irreps are as follows:

                     mode #  11
                     (  -0.00222  -0.00000   ) 
                     (   0.67836   0.00000   ) 
                     (  -0.00000  -0.00000   ) 
                     (  -0.00222  -0.00000   ) 
                     (  -0.28223  -0.00000   ) 
                     (   0.00000   0.00000   ) 
                     (   0.00092   0.00000   ) 
                     (   0.67836   0.00000   ) 
                     (  -0.00000  -0.00000   ) 
                     (  -0.00000   0.00000   ) 
                     (  -0.00000   0.00000   ) 
                     (  -0.00000   0.00000   ) 
  autoval = 0.1025E+01
     Irreps are as follows:

                     mode #  12
                     (  -0.67836  -0.00000   ) 
                     (  -0.00222  -0.00000   ) 
                     (  -0.00000  -0.00000   ) 
                     (  -0.67836  -0.00000   ) 
                     (   0.00092   0.00000   ) 
                     (  -0.00000  -0.00000   ) 
                     (   0.28223   0.00000   ) 
                     (  -0.00222  -0.00000   ) 
                     (  -0.00000  -0.00000   ) 
                     (  -0.00000   0.00000   ) 
                     (  -0.00000   0.00000   ) 
                     (  -0.00000   0.00000   ) 
  autoval = -.2463E+01
     Irreps are as follows:

                     mode #   1
                     (  -0.00000   0.00000   ) 
                     (  -0.00000   0.00000   ) 
                     (  -0.00000   0.00000   ) 
                     (  -0.00000   0.00000   ) 
                     (  -0.00000   0.00000   ) 
                     (  -0.00000   0.00000   ) 
                     (  -0.00000   0.00000   ) 
                     (  -0.00000   0.00000   ) 
                     (  -1.00000  -0.00000   ) 
                     (  -0.00000  -0.00000   ) 
                     (  -0.00000  -0.00000   ) 
                     (  -0.00000  -0.00000   ) 
  autoval = -.2463E+01
     Irreps are as follows:

                     mode #   2
                     (  -0.00000   0.00000   ) 
                     (  -0.00000   0.00000   ) 
                     (  -0.00000   0.00000   ) 
                     (  -0.00000   0.00000   ) 
                     (  -0.00000   0.00000   ) 
                     (  -0.00000   0.00000   ) 
                     (  -0.00000   0.00000   ) 
                     (  -1.00000  -0.00000   ) 
                     (  -0.00000  -0.00000   ) 
                     (  -0.00000  -0.00000   ) 
                     (  -0.00000  -0.00000   ) 
                     (  -0.00000  -0.00000   ) 
  autoval = -.2285E+01
     Irreps are as follows:

                     mode #   3
                     (  -0.00000   0.00000   ) 
                     (  -0.00000   0.00000   ) 
                     (  -0.00000   0.00000   ) 
                     (  -0.00000   0.00000   ) 
                     (  -0.00000   0.00000   ) 
                     (  -0.00000   0.00000   ) 
                     (  -0.00000   0.00000   ) 
                     (  -0.00000   0.00000   ) 
                     (  -0.00000   0.00000   ) 
                     (  -1.00000  -0.00000   ) 
                     (  -0.00000  -0.00000   ) 
                     (  -0.00000  -0.00000   ) 
  autoval = -.1513E+01
     Irreps are as follows:

                     mode #   4
                     (  -0.00000  -0.00000   ) 
                     (  -0.00000  -0.00000   ) 
                     (  -0.00000  -0.00000   ) 
                     (  -0.00000  -0.00000   ) 
                     (  -0.00000  -0.00000   ) 
                     (  -0.00000  -0.00000   ) 
                     (  -0.00000  -0.00000   ) 
                     (  -0.00000  -0.00000   ) 
                     (  -0.00000  -0.00000   ) 
                     (  -0.00000  -0.00000   ) 
                     (  -0.00000  -0.00000   ) 
                     (  -1.00000  -0.00000   ) 
  autoval = -.1513E+01
     Irreps are as follows:

                     mode #   5
                     (  -0.00000   0.00000   ) 
                     (  -0.00000   0.00000   ) 
                     (  -0.00000   0.00000   ) 
                     (  -0.00000   0.00000   ) 
                     (  -0.00000   0.00000   ) 
                     (  -0.00000   0.00000   ) 
                     (  -0.00000   0.00000   ) 
                     (  -0.00000   0.00000   ) 
                     (  -0.00000   0.00000   ) 
                     (  -0.00000   0.00000   ) 
                     (  -1.00000  -0.00000   ) 
                     (  -0.00000  -0.00000   ) 
  autoval = -.1003E+01
     Irreps are as follows:

                     mode #   6
                     (  -0.00000   0.00000   ) 
                     (  -0.97535  -0.00000   ) 
                     (  -0.00000   0.00000   ) 
                     (  -0.00000   0.00000   ) 
                     (   0.22066   0.00000   ) 
                     (  -0.00000   0.00000   ) 
                     (  -0.00000   0.00000   ) 
                     (  -0.00000   0.00000   ) 
                     (  -0.00000   0.00000   ) 
                     (  -0.00000   0.00000   ) 
                     (  -0.00000   0.00000   ) 
                     (  -0.00000   0.00000   ) 
  autoval = -.1003E+01
     Irreps are as follows:

                     mode #   7
                     (  -0.00000  -0.00000   ) 
                     (  -0.00000  -0.00000   ) 
                     (  -0.22066  -0.00000   ) 
                     (  -0.00000  -0.00000   ) 
                     (  -0.00000  -0.00000   ) 
                     (   0.97535  -0.00000   ) 
                     (   0.00000  -0.00000   ) 
                     (   0.00000  -0.00000   ) 
                     (   0.00000  -0.00000   ) 
                     (   0.00000  -0.00000   ) 
                     (   0.00000  -0.00000   ) 
                     (   0.00000  -0.00000   ) 
  autoval = -.8445E-01
     Irreps are as follows:

                     mode #   8
                     (  -0.00000   0.00000   ) 
                     (  -0.00000   0.00000   ) 
                     (  -0.00000   0.00000   ) 
                     (  -0.00000   0.00000   ) 
                     (  -0.00000   0.00000   ) 
                     (  -0.00000   0.00000   ) 
                     (  -1.00000  -0.00000   ) 
                     (  -0.00000  -0.00000   ) 
                     (  -0.00000  -0.00000   ) 
                     (  -0.00000  -0.00000   ) 
                     (  -0.00000  -0.00000   ) 
                     (  -0.00000  -0.00000   ) 
  autoval = 0.5215E+00
     Irreps are as follows:

                     mode #   9
                     (  -0.70711  -0.00000   ) 
                     (  -0.00000  -0.00000   ) 
                     (  -0.00000  -0.00000   ) 
                     (   0.70711  -0.00000   ) 
                     (   0.00000  -0.00000   ) 
                     (   0.00000  -0.00000   ) 
                     (   0.00000  -0.00000   ) 
                     (   0.00000  -0.00000   ) 
                     (   0.00000  -0.00000   ) 
                     (   0.00000  -0.00000   ) 
                     (   0.00000  -0.00000   ) 
                     (   0.00000  -0.00000   ) 
  autoval = 0.1014E+01
     Irreps are as follows:

                     mode #  10
                     (  -0.00000  -0.00000   ) 
                     (  -0.22066  -0.00000   ) 
                     (  -0.00000  -0.00000   ) 
                     (  -0.00000  -0.00000   ) 
                     (  -0.97535  -0.00000   ) 
                     (  -0.00000  -0.00000   ) 
                     (  -0.00000  -0.00000   ) 
                     (  -0.00000  -0.00000   ) 
                     (  -0.00000  -0.00000   ) 
                     (  -0.00000  -0.00000   ) 
                     (  -0.00000  -0.00000   ) 
                     (  -0.00000  -0.00000   ) 
  autoval = 0.1014E+01
     Irreps are as follows:

                     mode #  11
                     (  -0.00000  -0.00000   ) 
                     (  -0.00000  -0.00000   ) 
                     (  -0.97535  -0.00000   ) 
                     (  -0.00000  -0.00000   ) 
                     (  -0.00000   0.00000   ) 
                     (  -0.22066  -0.00000   ) 
                     (  -0.00000  -0.00000   ) 
                     (  -0.00000  -0.00000   ) 
                     (  -0.00000  -0.00000   ) 
                     (  -0.00000  -0.00000   ) 
                     (  -0.00000  -0.00000   ) 
                     (  -0.00000  -0.00000   ) 
  autoval = 0.1959E+01
     Irreps are as follows:

                     mode #  12
                     (  -0.70711  -0.00000   ) 
                     (  -0.00000  -0.00000   ) 
                     (  -0.00000   0.00000   ) 
                     (  -0.70711  -0.00000   ) 
                     (  -0.00000  -0.00000   ) 
                     (  -0.00000  -0.00000   ) 
                     (  -0.00000  -0.00000   ) 
                     (  -0.00000  -0.00000   ) 
                     (  -0.00000  -0.00000   ) 
                     (  -0.00000  -0.00000   ) 
                     (  -0.00000  -0.00000   ) 
                     (  -0.00000  -0.00000   ) 
  autoval = -.2693E+01
     Irreps are as follows:

                     mode #   1
                     (  -0.00000   0.00000   ) 
                     (  -0.00000   0.00000   ) 
                     (  -1.00000  -0.00000   ) 
                     (  -0.00000  -0.00000   ) 
                     (  -0.00000  -0.00000   ) 
                     (  -0.00000  -0.00000   ) 
                     (  -0.00000  -0.00000   ) 
                     (  -0.00000  -0.00000   ) 
                     (  -0.00000  -0.00000   ) 
                     (  -0.00000  -0.00000   ) 
                     (  -0.00000  -0.00000   ) 
                     (  -0.00000  -0.00000   ) 
  autoval = -.1999E+01
     Irreps are as follows:

                     mode #   2
                     (  -0.00000   0.00000   ) 
                     (  -0.00000   0.00000   ) 
                     (  -0.00000   0.00000   ) 
                     (  -0.00000   0.00000   ) 
                     (  -0.00000   0.00000   ) 
                     (  -0.00000   0.00000   ) 
                     (  -0.00000   0.00000   ) 
                     (  -0.00000   0.00000   ) 
                     (  -0.00000   0.00000   ) 
                     (  -1.00000  -0.00000   ) 
                     (  -0.00000  -0.00000   ) 
                     (  -0.00000  -0.00000   ) 
  autoval = -.1999E+01
     Irreps are as follows:

                     mode #   3
                     (  -0.00000   0.00000   ) 
                     (  -0.00000   0.00000   ) 
                     (  -0.00000   0.00000   ) 
                     (  -0.00000   0.00000   ) 
                     (  -0.00000   0.00000   ) 
                     (  -0.00000   0.00000   ) 
                     (  -0.00000   0.00000   ) 
                     (  -0.00000   0.00000   ) 
                     (  -0.00000   0.00000   ) 
                     (  -0.00000   0.00000   ) 
                     (  -1.00000  -0.00000   ) 
                     (  -0.00000  -0.00000   ) 
  autoval = -.1784E+01
     Irreps are as follows:

                     mode #   4
                     (  -0.00000  -0.00000   ) 
                     (  -0.00000  -0.00000   ) 
                     (  -0.00000  -0.00000   ) 
                     (  -0.70711  -0.00000   ) 
                     (  -0.00000  -0.00000   ) 
                     (  -0.00000  -0.00000   ) 
                     (  -0.00000  -0.00000   ) 
                     (  -0.70711  -0.00000   ) 
                     (  -0.00000  -0.00000   ) 
                     (  -0.00000  -0.00000   ) 
                     (  -0.00000  -0.00000   ) 
                     (  -0.00000  -0.00000   ) 
  autoval = -.1448E+01
     Irreps are as follows:

                     mode #   5
                     (  -0.00000   0.00000   ) 
                     (  -0.00000   0.00000   ) 
                     (  -0.00000   0.00000   ) 
                     (  -0.70711  -0.00000   ) 
                     (  -0.00000   0.00000   ) 
                     (  -0.00000   0.00000   ) 
                     (   0.00000  -0.00000   ) 
                     (   0.70711   0.00000   ) 
                     (  -0.00000   0.00000   ) 
                     (  -0.00000   0.00000   ) 
                     (  -0.00000   0.00000   ) 
                     (  -0.00000   0.00000   ) 
  autoval = -.1313E+01
     Irreps are as follows:

                     mode #   6
                     (  -0.00000  -0.00000   ) 
                     (  -0.00000  -0.00000   ) 
                     (  -0.00000  -0.00000   ) 
                     (  -0.00000  -0.00000   ) 
                     (  -0.00000  -0.00000   ) 
                     (  -0.00000  -0.00000   ) 
                     (  -0.00000  -0.00000   ) 
                     (  -0.00000  -0.00000   ) 
                     (  -0.00000  -0.00000   ) 
                     (  -0.00000  -0.00000   ) 
                     (  -0.00000  -0.00000   ) 
                     (  -1.00000  -0.00000   ) 
  autoval = -.9277E+00
     Irreps are as follows:

                     mode #   7
                     (  -0.00000   0.00000   ) 
                     (  -0.00000   0.00000   ) 
                     (  -0.00000   0.00000   ) 
                     (  -0.00000   0.00000   ) 
                     (  -0.00000   0.00000   ) 
                     (  -0.00000   0.00000   ) 
                     (  -0.00000   0.00000   ) 
                     (  -0.00000   0.00000   ) 
                     (  -1.00000  -0.00000   ) 
                     (  -0.00000  -0.00000   ) 
                     (  -0.00000  -0.00000   ) 
                     (  -0.00000  -0.00000   ) 
  autoval = -.9277E+00
     Irreps are as follows:

                     mode #   8
                     (  -0.00000   0.00000   ) 
                     (  -0.00000   0.00000   ) 
                     (  -0.00000   0.00000   ) 
                     (  -0.00000   0.00000   ) 
                     (  -0.00000   0.00000   ) 
                     (  -1.00000  -0.00000   ) 
                     (  -0.00000  -0.00000   ) 
                     (  -0.00000  -0.00000   ) 
                     (  -0.00000  -0.00000   ) 
                     (  -0.00000  -0.00000   ) 
                     (  -0.00000  -0.00000   ) 
                     (  -0.00000  -0.00000   ) 
  autoval = -.3018E+00
     Irreps are as follows:

                     mode #   9
                     (  -0.00000   0.00000   ) 
                     (  -0.00000   0.00000   ) 
                     (  -0.00000   0.00000   ) 
                     (  -0.00000   0.00000   ) 
                     (  -0.70711  -0.00000   ) 
                     (  -0.00000  -0.00000   ) 
                     (   0.70711   0.00000   ) 
                     (  -0.00000  -0.00000   ) 
                     (  -0.00000  -0.00000   ) 
                     (  -0.00000  -0.00000   ) 
                     (  -0.00000  -0.00000   ) 
                     (  -0.00000  -0.00000   ) 
  autoval = 0.1902E+00
     Irreps are as follows:

                     mode #  10
                     (  -0.00000  -0.00000   ) 
                     (  -0.00000  -0.00000   ) 
                     (  -0.00000  -0.00000   ) 
                     (   0.00000   0.00000   ) 
                     (  -0.70711  -0.00000   ) 
                     (  -0.00000  -0.00000   ) 
                     (  -0.70711  -0.00000   ) 
                     (  -0.00000  -0.00000   ) 
                     (  -0.00000  -0.00000   ) 
                     (  -0.00000  -0.00000   ) 
                     (  -0.00000  -0.00000   ) 
                     (  -0.00000  -0.00000   ) 
  autoval = 0.2348E+01
     Irreps are as follows:

                     mode #  11
                     (  -1.00000  -0.00000   ) 
                     (  -0.00000  -0.00000   ) 
                     (  -0.00000  -0.00000   ) 
                     (  -0.00000  -0.00000   ) 
                     (  -0.00000  -0.00000   ) 
                     (  -0.00000  -0.00000   ) 
                     (  -0.00000  -0.00000   ) 
                     (  -0.00000  -0.00000   ) 
                     (  -0.00000  -0.00000   ) 
                     (  -0.00000  -0.00000   ) 
                     (  -0.00000  -0.00000   ) 
                     (  -0.00000  -0.00000   ) 
  autoval = 0.2348E+01
     Irreps are as follows:

                     mode #  12
                     (  -0.00000   0.00000   ) 
                     (  -1.00000  -0.00000   ) 
                     (  -0.00000  -0.00000   ) 
                     (  -0.00000  -0.00000   ) 
                     (  -0.00000  -0.00000   ) 
                     (  -0.00000  -0.00000   ) 
                     (  -0.00000  -0.00000   ) 
                     (  -0.00000  -0.00000   ) 
                     (  -0.00000  -0.00000   ) 
                     (  -0.00000  -0.00000   ) 
                     (  -0.00000  -0.00000   ) 
                     (  -0.00000  -0.00000   ) 
  autoval = -.2002E+01
     Irreps are as follows:

                     mode #   1
                     (   0.00000   0.00000   ) 
                     (  -0.00000   0.00000   ) 
                     (  -0.57735  -0.00000   ) 
                     (   0.00000  -0.00000   ) 
                     (  -0.57735  -0.00000   ) 
                     (  -0.00000   0.00000   ) 
                     (  -0.57735  -0.00000   ) 
                     (   0.00000  -0.00000   ) 
                     (  -0.00000   0.00000   ) 
                     (  -0.00000   0.00000   ) 
                     (  -0.00000   0.00000   ) 
                     (  -0.00000   0.00000   ) 
  autoval = -.4753E+00
     Irreps are as follows:

                     mode #   2
                     (   0.00000  -0.00000   ) 
                     (  -0.69810  -0.00000   ) 
                     (  -0.00000  -0.00000   ) 
                     (  -0.07053  -0.08767   ) 
                     (  -0.00000  -0.00000   ) 
                     (  -0.69810  -0.00000   ) 
                     (   0.00000   0.00000   ) 
                     (  -0.07053  -0.08767   ) 
                     (   0.00000  -0.00000   ) 
                     (   0.00000  -0.00000   ) 
                     (   0.00000  -0.00000   ) 
                     (   0.00000  -0.00000   ) 
  autoval = -.4753E+00
     Irreps are as follows:

                     mode #   3
                     (  -0.70711  -0.00000   ) 
                     (  -0.00000  -0.00000   ) 
                     (  -0.00000  -0.00000   ) 
                     (  -0.00000   0.00000   ) 
                     (   0.00000  -0.00000   ) 
                     (  -0.00000  -0.00000   ) 
                     (  -0.00000  -0.00000   ) 
                     (  -0.00000  -0.00000   ) 
                     (  -0.70711  -0.00000   ) 
                     (  -0.00000  -0.00000   ) 
                     (  -0.00000  -0.00000   ) 
                     (  -0.00000  -0.00000   ) 
  autoval = -.4753E+00
     Irreps are as follows:

                     mode #   4
                     (  -0.00000   0.00000   ) 
                     (  -0.11252  -0.00000   ) 
                     (   0.00000   0.00000   ) 
                     (   0.43758   0.54394   ) 
                     (   0.00000   0.00000   ) 
                     (  -0.11252  -0.00000   ) 
                     (   0.00000   0.00000   ) 
                     (   0.43758   0.54394   ) 
                     (  -0.00000  -0.00000   ) 
                     (  -0.00000  -0.00000   ) 
                     (  -0.00000  -0.00000   ) 
                     (  -0.00000  -0.00000   ) 
  autoval = 0.4516E-02
     Irreps are as follows:

                     mode #   5
                     (  -0.00000   0.00000   ) 
                     (  -0.00000   0.00000   ) 
                     (  -0.00000   0.00000   ) 
                     (  -0.00000   0.00000   ) 
                     (  -0.00000   0.00000   ) 
                     (  -0.00000   0.00000   ) 
                     (  -0.00000   0.00000   ) 
                     (  -0.00000   0.00000   ) 
                     (  -0.00000   0.00000   ) 
                     (  -1.00000  -0.00000   ) 
                     (  -0.00000  -0.00000   ) 
                     (  -0.00000  -0.00000   ) 
  autoval = 0.4516E-02
     Irreps are as follows:

                     mode #   6
                     (  -0.00000  -0.00000   ) 
                     (  -0.00000  -0.00000   ) 
                     (  -0.00000  -0.00000   ) 
                     (  -0.00000  -0.00000   ) 
                     (  -0.00000  -0.00000   ) 
                     (  -0.00000  -0.00000   ) 
                     (  -0.00000  -0.00000   ) 
                     (  -0.00000  -0.00000   ) 
                     (  -0.00000  -0.00000   ) 
                     (  -0.00000  -0.00000   ) 
                     (  -0.00000  -0.00000   ) 
                     (  -1.00000  -0.00000   ) 
  autoval = 0.4516E-02
     Irreps are as follows:

                     mode #   7
                     (  -0.00000   0.00000   ) 
                     (  -0.00000   0.00000   ) 
                     (  -0.00000   0.00000   ) 
                     (  -0.00000   0.00000   ) 
                     (  -0.00000   0.00000   ) 
                     (  -0.00000   0.00000   ) 
                     (  -0.00000   0.00000   ) 
                     (  -0.00000   0.00000   ) 
                     (  -0.00000   0.00000   ) 
                     (  -0.00000   0.00000   ) 
                     (  -1.00000  -0.00000   ) 
                     (  -0.00000  -0.00000   ) 
  autoval = 0.8979E+00
     Irreps are as follows:

                     mode #   8
                     (  -0.00000   0.00000   ) 
                     (   0.00000  -0.00000   ) 
                     (  -0.57735  -0.00000   ) 
                     (   0.00000   0.00000   ) 
                     (   0.28868   0.50000   ) 
                     (   0.00000   0.00000   ) 
                     (   0.28868  -0.50000   ) 
                     (  -0.00000  -0.00000   ) 
                     (  -0.00000  -0.00000   ) 
                     (  -0.00000  -0.00000   ) 
                     (  -0.00000  -0.00000   ) 
                     (  -0.00000  -0.00000   ) 
  autoval = 0.8979E+00
     Irreps are as follows:

                     mode #   9
                     (   0.00000   0.00000   ) 
                     (   0.00000  -0.00000   ) 
                     (  -0.57735  -0.00000   ) 
                     (  -0.00000   0.00000   ) 
                     (   0.28868  -0.50000   ) 
                     (  -0.00000   0.00000   ) 
                     (   0.28868   0.50000   ) 
                     (  -0.00000   0.00000   ) 
                     (  -0.00000   0.00000   ) 
                     (  -0.00000   0.00000   ) 
                     (  -0.00000   0.00000   ) 
                     (  -0.00000   0.00000   ) 
  autoval = 0.1313E+01
     Irreps are as follows:

                     mode #  10
                     (   0.00000  -0.00000   ) 
                     (  -0.70692  -0.00000   ) 
                     (  -0.00000  -0.00000   ) 
                     (   0.00473   0.01576   ) 
                     (   0.00000   0.00000   ) 
                     (   0.70692   0.00000   ) 
                     (   0.00000   0.00000   ) 
                     (  -0.00473  -0.01576   ) 
                     (  -0.00000  -0.00000   ) 
                     (  -0.00000  -0.00000   ) 
                     (  -0.00000  -0.00000   ) 
                     (  -0.00000  -0.00000   ) 
  autoval = 0.1313E+01
     Irreps are as follows:

                     mode #  11
                     (  -0.00000   0.00000   ) 
                     (  -0.01645  -0.00000   ) 
                     (  -0.00000  -0.00000   ) 
                     (  -0.20337  -0.67703   ) 
                     (   0.00000   0.00000   ) 
                     (   0.01645   0.00000   ) 
                     (   0.00000  -0.00000   ) 
                     (   0.20337   0.67703   ) 
                     (  -0.00000  -0.00000   ) 
                     (  -0.00000  -0.00000   ) 
                     (  -0.00000  -0.00000   ) 
                     (  -0.00000  -0.00000   ) 
  autoval = 0.1313E+01
     Irreps are as follows:

                     mode #  12
                     (  -0.70711  -0.00000   ) 
                     (  -0.00000  -0.00000   ) 
                     (  -0.00000   0.00000   ) 
                     (  -0.00000   0.00000   ) 
                     (   0.00000  -0.00000   ) 
                     (  -0.00000   0.00000   ) 
                     (  -0.00000   0.00000   ) 
                     (   0.00000  -0.00000   ) 
                     (   0.70711   0.00000   ) 
                     (  -0.00000   0.00000   ) 
                     (  -0.00000   0.00000   ) 
                     (  -0.00000   0.00000   ) 

     Calculation of q =    0.0000000   0.0000000   0.0000000

     ReO3                                                                       

     bravais-lattice index     =            0
     lattice parameter (alat)  =       6.9807  a.u.
     unit-cell volume          =     340.1669 (a.u.)^3
     number of atoms/cell      =            4
     number of atomic types    =            2
     kinetic-energy cut-off    =     120.0000  Ry
     charge density cut-off    =     480.0000  Ry
     convergence threshold     =      1.0E-14
     beta                      =       0.5000
     number of iterations used =            4
     Exchange-correlation      = PZ ( 1  1  0  0 0 0)


     celldm(1)=    6.98067  celldm(2)=    0.00000  celldm(3)=    0.00000
     celldm(4)=    0.00000  celldm(5)=    0.00000  celldm(6)=    0.00000

     crystal axes: (cart. coord. in units of alat)
               a(1) = (  1.0000  0.0000  0.0000 )  
               a(2) = (  0.0000  1.0000  0.0000 )  
               a(3) = (  0.0000  0.0000  1.0000 )  

     reciprocal axes: (cart. coord. in units 2 pi/alat)
               b(1) = (  1.0000  0.0000  0.0000 )  
               b(2) = (  0.0000  1.0000  0.0000 )  
               b(3) = (  0.0000  0.0000  1.0000 )  


     Atoms inside the unit cell: 

     Cartesian axes

     site n.  atom      mass           positions (alat units)
        1     O   15.9994   tau(    1) = (    0.00000    0.00000    0.50000  )
        2     O   15.9994   tau(    2) = (    0.00000    0.50000    0.00000  )
        3     O   15.9994   tau(    3) = (    0.50000    0.00000    0.00000  )
        4     Re 186.2070   tau(    4) = (    0.00000    0.00000    0.00000  )

     Computing dynamical matrix for 
                    q = (   0.0000000   0.0000000   0.0000000 )

     49 Sym.Ops. (with q -> -q+G )

                                    s                        frac. trans.

      isym =  1     identity                                     

 cryst.   s( 1) = (     1          0          0      )
                  (     0          1          0      )
                  (     0          0          1      )

 cart.    s( 1) = (  1.0000000  0.0000000  0.0000000 )
                  (  0.0000000  1.0000000  0.0000000 )
                  (  0.0000000  0.0000000  1.0000000 )


      isym =  2     180 deg rotation - cart. axis [0,0,1]        

 cryst.   s( 2) = (    -1          0          0      )
                  (     0         -1          0      )
                  (     0          0          1      )

 cart.    s( 2) = ( -1.0000000  0.0000000  0.0000000 )
                  (  0.0000000 -1.0000000  0.0000000 )
                  (  0.0000000  0.0000000  1.0000000 )


      isym =  3     180 deg rotation - cart. axis [0,1,0]        

 cryst.   s( 3) = (    -1          0          0      )
                  (     0          1          0      )
                  (     0          0         -1      )

 cart.    s( 3) = ( -1.0000000  0.0000000  0.0000000 )
                  (  0.0000000  1.0000000  0.0000000 )
                  (  0.0000000  0.0000000 -1.0000000 )


      isym =  4     180 deg rotation - cart. axis [1,0,0]        

 cryst.   s( 4) = (     1          0          0      )
                  (     0         -1          0      )
                  (     0          0         -1      )

 cart.    s( 4) = (  1.0000000  0.0000000  0.0000000 )
                  (  0.0000000 -1.0000000  0.0000000 )
                  (  0.0000000  0.0000000 -1.0000000 )


      isym =  5     inversion                                    

 cryst.   s( 5) = (    -1          0          0      )
                  (     0         -1          0      )
                  (     0          0         -1      )

 cart.    s( 5) = ( -1.0000000  0.0000000  0.0000000 )
                  (  0.0000000 -1.0000000  0.0000000 )
                  (  0.0000000  0.0000000 -1.0000000 )


      isym =  6     inv. 180 deg rotation - cart. axis [0,0,1]   

 cryst.   s( 6) = (     1          0          0      )
                  (     0          1          0      )
                  (     0          0         -1      )

 cart.    s( 6) = (  1.0000000  0.0000000  0.0000000 )
                  (  0.0000000  1.0000000  0.0000000 )
                  (  0.0000000  0.0000000 -1.0000000 )


      isym =  7     inv. 180 deg rotation - cart. axis [0,1,0]   

 cryst.   s( 7) = (     1          0          0      )
                  (     0         -1          0      )
                  (     0          0          1      )

 cart.    s( 7) = (  1.0000000  0.0000000  0.0000000 )
                  (  0.0000000 -1.0000000  0.0000000 )
                  (  0.0000000  0.0000000  1.0000000 )


      isym =  8     inv. 180 deg rotation - cart. axis [1,0,0]   

 cryst.   s( 8) = (    -1          0          0      )
                  (     0          1          0      )
                  (     0          0          1      )

 cart.    s( 8) = ( -1.0000000  0.0000000  0.0000000 )
                  (  0.0000000  1.0000000  0.0000000 )
                  (  0.0000000  0.0000000  1.0000000 )


      isym =  9     inv. 180 deg rotation - cart. axis [1,1,0]   

 cryst.   s( 9) = (     0         -1          0      )
                  (    -1          0          0      )
                  (     0          0          1      )

 cart.    s( 9) = (  0.0000000 -1.0000000  0.0000000 )
                  ( -1.0000000  0.0000000  0.0000000 )
                  (  0.0000000  0.0000000  1.0000000 )


      isym = 10     inv. 180 deg rotation - cart. axis [1,-1,0]  

 cryst.   s(10) = (     0          1          0      )
                  (     1          0          0      )
                  (     0          0          1      )

 cart.    s(10) = (  0.0000000  1.0000000  0.0000000 )
                  (  1.0000000  0.0000000  0.0000000 )
                  (  0.0000000  0.0000000  1.0000000 )


      isym = 11     inv. 90 deg rotation - cart. axis [0,0,-1]   

 cryst.   s(11) = (     0          1          0      )
                  (    -1          0          0      )
                  (     0          0         -1      )

 cart.    s(11) = (  0.0000000 -1.0000000  0.0000000 )
                  (  1.0000000  0.0000000  0.0000000 )
                  (  0.0000000  0.0000000 -1.0000000 )


      isym = 12     inv. 90 deg rotation - cart. axis [0,0,1]    

 cryst.   s(12) = (     0         -1          0      )
                  (     1          0          0      )
                  (     0          0         -1      )

 cart.    s(12) = (  0.0000000  1.0000000  0.0000000 )
                  ( -1.0000000  0.0000000  0.0000000 )
                  (  0.0000000  0.0000000 -1.0000000 )


      isym = 13     180 deg rotation - cart. axis [1,1,0]        

 cryst.   s(13) = (     0          1          0      )
                  (     1          0          0      )
                  (     0          0         -1      )

 cart.    s(13) = (  0.0000000  1.0000000  0.0000000 )
                  (  1.0000000  0.0000000  0.0000000 )
                  (  0.0000000  0.0000000 -1.0000000 )


      isym = 14     180 deg rotation - cart. axis [1,-1,0]       

 cryst.   s(14) = (     0         -1          0      )
                  (    -1          0          0      )
                  (     0          0         -1      )

 cart.    s(14) = (  0.0000000 -1.0000000  0.0000000 )
                  ( -1.0000000  0.0000000  0.0000000 )
                  (  0.0000000  0.0000000 -1.0000000 )


      isym = 15     90 deg rotation - cart. axis [0,0,-1]        

 cryst.   s(15) = (     0         -1          0      )
                  (     1          0          0      )
                  (     0          0          1      )

 cart.    s(15) = (  0.0000000  1.0000000  0.0000000 )
                  ( -1.0000000  0.0000000  0.0000000 )
                  (  0.0000000  0.0000000  1.0000000 )


      isym = 16     90 deg rotation - cart. axis [0,0,1]         

 cryst.   s(16) = (     0          1          0      )
                  (    -1          0          0      )
                  (     0          0          1      )

 cart.    s(16) = (  0.0000000 -1.0000000  0.0000000 )
                  (  1.0000000  0.0000000  0.0000000 )
                  (  0.0000000  0.0000000  1.0000000 )


      isym = 17     120 deg rotation - cart. axis [-1,-1,-1]     

 cryst.   s(17) = (     0          0          1      )
                  (     1          0          0      )
                  (     0          1          0      )

 cart.    s(17) = (  0.0000000  1.0000000  0.0000000 )
                  (  0.0000000  0.0000000  1.0000000 )
                  (  1.0000000  0.0000000  0.0000000 )


      isym = 18     120 deg rotation - cart. axis [-1,1,1]       

 cryst.   s(18) = (     0          0         -1      )
                  (    -1          0          0      )
                  (     0          1          0      )

 cart.    s(18) = (  0.0000000 -1.0000000  0.0000000 )
                  (  0.0000000  0.0000000  1.0000000 )
                  ( -1.0000000  0.0000000  0.0000000 )


      isym = 19     120 deg rotation - cart. axis [1,1,-1]       

 cryst.   s(19) = (     0          0         -1      )
                  (     1          0          0      )
                  (     0         -1          0      )

 cart.    s(19) = (  0.0000000  1.0000000  0.0000000 )
                  (  0.0000000  0.0000000 -1.0000000 )
                  ( -1.0000000  0.0000000  0.0000000 )


      isym = 20     120 deg rotation - cart. axis [1,-1,1]       

 cryst.   s(20) = (     0          0          1      )
                  (    -1          0          0      )
                  (     0         -1          0      )

 cart.    s(20) = (  0.0000000 -1.0000000  0.0000000 )
                  (  0.0000000  0.0000000 -1.0000000 )
                  (  1.0000000  0.0000000  0.0000000 )


      isym = 21     120 deg rotation - cart. axis [1,1,1]        

 cryst.   s(21) = (     0          1          0      )
                  (     0          0          1      )
                  (     1          0          0      )

 cart.    s(21) = (  0.0000000  0.0000000  1.0000000 )
                  (  1.0000000  0.0000000  0.0000000 )
                  (  0.0000000  1.0000000  0.0000000 )


      isym = 22     120 deg rotation - cart. axis [-1,1,-1]      

 cryst.   s(22) = (     0         -1          0      )
                  (     0          0         -1      )
                  (     1          0          0      )

 cart.    s(22) = (  0.0000000  0.0000000  1.0000000 )
                  ( -1.0000000  0.0000000  0.0000000 )
                  (  0.0000000 -1.0000000  0.0000000 )


      isym = 23     120 deg rotation - cart. axis [1,-1,-1]      

 cryst.   s(23) = (     0         -1          0      )
                  (     0          0          1      )
                  (    -1          0          0      )

 cart.    s(23) = (  0.0000000  0.0000000 -1.0000000 )
                  ( -1.0000000  0.0000000  0.0000000 )
                  (  0.0000000  1.0000000  0.0000000 )


      isym = 24     120 deg rotation - cart. axis [-1,-1,1]      

 cryst.   s(24) = (     0          1          0      )
                  (     0          0         -1      )
                  (    -1          0          0      )

 cart.    s(24) = (  0.0000000  0.0000000 -1.0000000 )
                  (  1.0000000  0.0000000  0.0000000 )
                  (  0.0000000 -1.0000000  0.0000000 )


      isym = 25     180 deg rotation - cart. axis [1,0,1]        

 cryst.   s(25) = (     0          0          1      )
                  (     0         -1          0      )
                  (     1          0          0      )

 cart.    s(25) = (  0.0000000  0.0000000  1.0000000 )
                  (  0.0000000 -1.0000000  0.0000000 )
                  (  1.0000000  0.0000000  0.0000000 )


      isym = 26     180 deg rotation - cart. axis [-1,0,1]       

 cryst.   s(26) = (     0          0         -1      )
                  (     0         -1          0      )
                  (    -1          0          0      )

 cart.    s(26) = (  0.0000000  0.0000000 -1.0000000 )
                  (  0.0000000 -1.0000000  0.0000000 )
                  ( -1.0000000  0.0000000  0.0000000 )


      isym = 27     90 deg rotation - cart. axis [0,1,0]         

 cryst.   s(27) = (     0          0         -1      )
                  (     0          1          0      )
                  (     1          0          0      )

 cart.    s(27) = (  0.0000000  0.0000000  1.0000000 )
                  (  0.0000000  1.0000000  0.0000000 )
                  ( -1.0000000  0.0000000  0.0000000 )


      isym = 28     90 deg rotation - cart. axis [0,-1,0]        

 cryst.   s(28) = (     0          0          1      )
                  (     0          1          0      )
                  (    -1          0          0      )

 cart.    s(28) = (  0.0000000  0.0000000 -1.0000000 )
                  (  0.0000000  1.0000000  0.0000000 )
                  (  1.0000000  0.0000000  0.0000000 )


      isym = 29     180 deg rotation - cart. axis [0,1,1]        

 cryst.   s(29) = (    -1          0          0      )
                  (     0          0          1      )
                  (     0          1          0      )

 cart.    s(29) = ( -1.0000000  0.0000000  0.0000000 )
                  (  0.0000000  0.0000000  1.0000000 )
                  (  0.0000000  1.0000000  0.0000000 )


      isym = 30     180 deg rotation - cart. axis [0,1,-1]       

 cryst.   s(30) = (    -1          0          0      )
                  (     0          0         -1      )
                  (     0         -1          0      )

 cart.    s(30) = ( -1.0000000  0.0000000  0.0000000 )
                  (  0.0000000  0.0000000 -1.0000000 )
                  (  0.0000000 -1.0000000  0.0000000 )


      isym = 31     90 deg rotation - cart. axis [-1,0,0]        

 cryst.   s(31) = (     1          0          0      )
                  (     0          0         -1      )
                  (     0          1          0      )

 cart.    s(31) = (  1.0000000  0.0000000  0.0000000 )
                  (  0.0000000  0.0000000  1.0000000 )
                  (  0.0000000 -1.0000000  0.0000000 )


      isym = 32     90 deg rotation - cart. axis [1,0,0]         

 cryst.   s(32) = (     1          0          0      )
                  (     0          0          1      )
                  (     0         -1          0      )

 cart.    s(32) = (  1.0000000  0.0000000  0.0000000 )
                  (  0.0000000  0.0000000 -1.0000000 )
                  (  0.0000000  1.0000000  0.0000000 )


      isym = 33     inv. 180 deg rotation - cart. axis [1,0,1]   

 cryst.   s(33) = (     0          0         -1      )
                  (     0          1          0      )
                  (    -1          0          0      )

 cart.    s(33) = (  0.0000000  0.0000000 -1.0000000 )
                  (  0.0000000  1.0000000  0.0000000 )
                  ( -1.0000000  0.0000000  0.0000000 )


      isym = 34     inv. 180 deg rotation - cart. axis [-1,0,1]  

 cryst.   s(34) = (     0          0          1      )
                  (     0          1          0      )
                  (     1          0          0      )

 cart.    s(34) = (  0.0000000  0.0000000  1.0000000 )
                  (  0.0000000  1.0000000  0.0000000 )
                  (  1.0000000  0.0000000  0.0000000 )


      isym = 35     inv. 90 deg rotation - cart. axis [0,1,0]    

 cryst.   s(35) = (     0          0          1      )
                  (     0         -1          0      )
                  (    -1          0          0      )

 cart.    s(35) = (  0.0000000  0.0000000 -1.0000000 )
                  (  0.0000000 -1.0000000  0.0000000 )
                  (  1.0000000  0.0000000  0.0000000 )


      isym = 36     inv. 90 deg rotation - cart. axis [0,-1,0]   

 cryst.   s(36) = (     0          0         -1      )
                  (     0         -1          0      )
                  (     1          0          0      )

 cart.    s(36) = (  0.0000000  0.0000000  1.0000000 )
                  (  0.0000000 -1.0000000  0.0000000 )
                  ( -1.0000000  0.0000000  0.0000000 )


      isym = 37     inv. 180 deg rotation - cart. axis [0,1,1]   

 cryst.   s(37) = (     1          0          0      )
                  (     0          0         -1      )
                  (     0         -1          0      )

 cart.    s(37) = (  1.0000000  0.0000000  0.0000000 )
                  (  0.0000000  0.0000000 -1.0000000 )
                  (  0.0000000 -1.0000000  0.0000000 )


      isym = 38     inv. 180 deg rotation - cart. axis [0,1,-1]  

 cryst.   s(38) = (     1          0          0      )
                  (     0          0          1      )
                  (     0          1          0      )

 cart.    s(38) = (  1.0000000  0.0000000  0.0000000 )
                  (  0.0000000  0.0000000  1.0000000 )
                  (  0.0000000  1.0000000  0.0000000 )


      isym = 39     inv. 90 deg rotation - cart. axis [-1,0,0]   

 cryst.   s(39) = (    -1          0          0      )
                  (     0          0          1      )
                  (     0         -1          0      )

 cart.    s(39) = ( -1.0000000  0.0000000  0.0000000 )
                  (  0.0000000  0.0000000 -1.0000000 )
                  (  0.0000000  1.0000000  0.0000000 )


      isym = 40     inv. 90 deg rotation - cart. axis [1,0,0]    

 cryst.   s(40) = (    -1          0          0      )
                  (     0          0         -1      )
                  (     0          1          0      )

 cart.    s(40) = ( -1.0000000  0.0000000  0.0000000 )
                  (  0.0000000  0.0000000  1.0000000 )
                  (  0.0000000 -1.0000000  0.0000000 )


      isym = 41     inv. 120 deg rotation - cart. axis [-1,-1,-1]

 cryst.   s(41) = (     0          0         -1      )
                  (    -1          0          0      )
                  (     0         -1          0      )

 cart.    s(41) = (  0.0000000 -1.0000000  0.0000000 )
                  (  0.0000000  0.0000000 -1.0000000 )
                  ( -1.0000000  0.0000000  0.0000000 )


      isym = 42     inv. 120 deg rotation - cart. axis [-1,1,1]  

 cryst.   s(42) = (     0          0          1      )
                  (     1          0          0      )
                  (     0         -1          0      )

 cart.    s(42) = (  0.0000000  1.0000000  0.0000000 )
                  (  0.0000000  0.0000000 -1.0000000 )
                  (  1.0000000  0.0000000  0.0000000 )


      isym = 43     inv. 120 deg rotation - cart. axis [1,1,-1]  

 cryst.   s(43) = (     0          0          1      )
                  (    -1          0          0      )
                  (     0          1          0      )

 cart.    s(43) = (  0.0000000 -1.0000000  0.0000000 )
                  (  0.0000000  0.0000000  1.0000000 )
                  (  1.0000000  0.0000000  0.0000000 )


      isym = 44     inv. 120 deg rotation - cart. axis [1,-1,1]  

 cryst.   s(44) = (     0          0         -1      )
                  (     1          0          0      )
                  (     0          1          0      )

 cart.    s(44) = (  0.0000000  1.0000000  0.0000000 )
                  (  0.0000000  0.0000000  1.0000000 )
                  ( -1.0000000  0.0000000  0.0000000 )


      isym = 45     inv. 120 deg rotation - cart. axis [1,1,1]   

 cryst.   s(45) = (     0         -1          0      )
                  (     0          0         -1      )
                  (    -1          0          0      )

 cart.    s(45) = (  0.0000000  0.0000000 -1.0000000 )
                  ( -1.0000000  0.0000000  0.0000000 )
                  (  0.0000000 -1.0000000  0.0000000 )


      isym = 46     inv. 120 deg rotation - cart. axis [-1,1,-1] 

 cryst.   s(46) = (     0          1          0      )
                  (     0          0          1      )
                  (    -1          0          0      )

 cart.    s(46) = (  0.0000000  0.0000000 -1.0000000 )
                  (  1.0000000  0.0000000  0.0000000 )
                  (  0.0000000  1.0000000  0.0000000 )


      isym = 47     inv. 120 deg rotation - cart. axis [1,-1,-1] 

 cryst.   s(47) = (     0          1          0      )
                  (     0          0         -1      )
                  (     1          0          0      )

 cart.    s(47) = (  0.0000000  0.0000000  1.0000000 )
                  (  1.0000000  0.0000000  0.0000000 )
                  (  0.0000000 -1.0000000  0.0000000 )


      isym = 48     inv. 120 deg rotation - cart. axis [-1,-1,1] 

 cryst.   s(48) = (     0         -1          0      )
                  (     0          0          1      )
                  (     1          0          0      )

 cart.    s(48) = (  0.0000000  0.0000000  1.0000000 )
                  ( -1.0000000  0.0000000  0.0000000 )
                  (  0.0000000  1.0000000  0.0000000 )


     This transformation sends q -> -q+G

      isym = 49     identity                                     

 cryst.   s(49) = (     1          0          0      )
                  (     0          1          0      )
                  (     0          0          1      )

 cart.    s(49) = (  1.0000000  0.0000000  0.0000000 )
                  (  0.0000000  1.0000000  0.0000000 )
                  (  0.0000000  0.0000000  1.0000000 )


     G cutoff =  592.4834  (   7535 G-vectors)     FFT grid: ( 50, 50, 50)

     number of k points=    20  mp smearing, width (Ry)=  0.0100
                       cart. coord. in units 2pi/alat
        k(    1) = (   0.0625000   0.0625000   0.0625000), wk =   0.0312500
        k(    2) = (   0.0625000   0.0625000   0.1875000), wk =   0.0937500
        k(    3) = (   0.0625000   0.0625000   0.3125000), wk =   0.0937500
        k(    4) = (   0.0625000   0.0625000   0.4375000), wk =   0.0937500
        k(    5) = (   0.0625000   0.1875000   0.1875000), wk =   0.0937500
        k(    6) = (   0.0625000   0.1875000   0.3125000), wk =   0.1875000
        k(    7) = (   0.0625000   0.1875000   0.4375000), wk =   0.1875000
        k(    8) = (   0.0625000   0.3125000   0.3125000), wk =   0.0937500
        k(    9) = (   0.0625000   0.3125000   0.4375000), wk =   0.1875000
        k(   10) = (   0.0625000   0.4375000   0.4375000), wk =   0.0937500
        k(   11) = (   0.1875000   0.1875000   0.1875000), wk =   0.0312500
        k(   12) = (   0.1875000   0.1875000   0.3125000), wk =   0.0937500
        k(   13) = (   0.1875000   0.1875000   0.4375000), wk =   0.0937500
        k(   14) = (   0.1875000   0.3125000   0.3125000), wk =   0.0937500
        k(   15) = (   0.1875000   0.3125000   0.4375000), wk =   0.1875000
        k(   16) = (   0.1875000   0.4375000   0.4375000), wk =   0.0937500
        k(   17) = (   0.3125000   0.3125000   0.3125000), wk =   0.0312500
        k(   18) = (   0.3125000   0.3125000   0.4375000), wk =   0.0937500
        k(   19) = (   0.3125000   0.4375000   0.4375000), wk =   0.0937500
        k(   20) = (   0.4375000   0.4375000   0.4375000), wk =   0.0312500

                       cryst. coord.
        k(    1) = (   0.0625000   0.0625000   0.0625000), wk =   0.0312500
        k(    2) = (   0.0625000   0.0625000   0.1875000), wk =   0.0937500
        k(    3) = (   0.0625000   0.0625000   0.3125000), wk =   0.0937500
        k(    4) = (   0.0625000   0.0625000   0.4375000), wk =   0.0937500
        k(    5) = (   0.0625000   0.1875000   0.1875000), wk =   0.0937500
        k(    6) = (   0.0625000   0.1875000   0.3125000), wk =   0.1875000
        k(    7) = (   0.0625000   0.1875000   0.4375000), wk =   0.1875000
        k(    8) = (   0.0625000   0.3125000   0.3125000), wk =   0.0937500
        k(    9) = (   0.0625000   0.3125000   0.4375000), wk =   0.1875000
        k(   10) = (   0.0625000   0.4375000   0.4375000), wk =   0.0937500
        k(   11) = (   0.1875000   0.1875000   0.1875000), wk =   0.0312500
        k(   12) = (   0.1875000   0.1875000   0.3125000), wk =   0.0937500
        k(   13) = (   0.1875000   0.1875000   0.4375000), wk =   0.0937500
        k(   14) = (   0.1875000   0.3125000   0.3125000), wk =   0.0937500
        k(   15) = (   0.1875000   0.3125000   0.4375000), wk =   0.1875000
        k(   16) = (   0.1875000   0.4375000   0.4375000), wk =   0.0937500
        k(   17) = (   0.3125000   0.3125000   0.3125000), wk =   0.0312500
        k(   18) = (   0.3125000   0.3125000   0.4375000), wk =   0.0937500
        k(   19) = (   0.3125000   0.4375000   0.4375000), wk =   0.0937500
        k(   20) = (   0.4375000   0.4375000   0.4375000), wk =   0.0312500

     PseudoPot. # 1 for Re read from file:
     /public3/home/sc55341/softwares/pseudopotentials/Goedecker-Hartwigsen-Hutter-Teter/PZ/pz/Re.pz-hgh.UPF
     MD5 check sum: 1fa976f9f5bcd98ffd33c953de317e11
     Pseudo is Norm-conserving, Zval =  7.0
     Generated in analytical, separable form
     Using radial grid of 1275 points,  6 beta functions with: 
                l(1) =   0
                l(2) =   0
                l(3) =   1
                l(4) =   1
                l(5) =   2
                l(6) =   2

     PseudoPot. # 2 for O  read from file:
     /public3/home/sc55341/softwares/pseudopotentials/Goedecker-Hartwigsen-Hutter-Teter/PZ/pz/O.pz-hgh.UPF
     MD5 check sum: 3607071b9a75e1baafacfeb9942a3292
     Pseudo is Norm-conserving, Zval =  6.0
     Generated in analytical, separable form
     Using radial grid of 1095 points,  1 beta functions with: 
                l(1) =   0


     Atomic displacements:
     There are   4 irreducible representations

     Representation     1      3 modes -  To be done
     Irreps are as follows:

     mode #   1              mode #   2              mode #   3
     (  -0.18250  -0.00000 ) (  -0.07473  -0.00000 ) (  -0.03060  -0.00000 ) 
     (   0.07359   0.00000 ) (  -0.18505  -0.00000 ) (   0.01300  -0.00000 ) 
     (   0.15980   0.00000 ) (  -0.00291  -0.00000 ) (  -0.94594  -0.00000 ) 
     (  -0.18250  -0.00000 ) (  -0.07473  -0.00000 ) (  -0.03060  -0.00000 ) 
     (   0.35376   0.00000 ) (  -0.88955  -0.00000 ) (   0.06250  -0.00000 ) 
     (   0.03324   0.00000 ) (  -0.00061  -0.00000 ) (  -0.19678  -0.00000 ) 
     (  -0.87730  -0.00000 ) (  -0.35923  -0.00000 ) (  -0.14710  -0.00000 ) 
     (   0.07359   0.00000 ) (  -0.18505  -0.00000 ) (   0.01300  -0.00000 ) 
     (   0.03324   0.00000 ) (  -0.00061  -0.00000 ) (  -0.19678  -0.00000 ) 
     (  -0.00000   0.00000 ) (  -0.00000   0.00000 ) (  -0.00000  -0.00000 ) 
     (  -0.00000   0.00000 ) (  -0.00000   0.00000 ) (  -0.00000  -0.00000 ) 
     (  -0.00000   0.00000 ) (  -0.00000   0.00000 ) (  -0.00000  -0.00000 ) 

     Representation     2      3 modes -  To be done
     Irreps are as follows:

     mode #   4              mode #   5              mode #   6
     (  -0.00530  -0.00000 ) (  -0.03426  -0.00000 ) (  -0.70626  -0.00000 ) 
     (   0.13477  -0.00000 ) (   0.69328   0.00000 ) (  -0.03464  -0.00000 ) 
     (  -0.00000  -0.00000 ) (   0.00000   0.00000 ) (  -0.00000  -0.00000 ) 
     (   0.00530  -0.00000 ) (   0.03426   0.00000 ) (   0.70626  -0.00000 ) 
     (   0.00000  -0.00000 ) (   0.00000   0.00000 ) (   0.00000  -0.00000 ) 
     (   0.69412  -0.00000 ) (  -0.13487  -0.00000 ) (   0.00133  -0.00000 ) 
     (   0.00000  -0.00000 ) (  -0.00000  -0.00000 ) (  -0.00000  -0.00000 ) 
     (  -0.13477  -0.00000 ) (  -0.69328  -0.00000 ) (   0.03464  -0.00000 ) 
     (  -0.69412  -0.00000 ) (   0.13487   0.00000 ) (  -0.00133  -0.00000 ) 
     (  -0.00000  -0.00000 ) (  -0.00000   0.00000 ) (  -0.00000  -0.00000 ) 
     (  -0.00000  -0.00000 ) (  -0.00000   0.00000 ) (  -0.00000  -0.00000 ) 
     (  -0.00000  -0.00000 ) (  -0.00000   0.00000 ) (  -0.00000  -0.00000 ) 

     Representation     3      3 modes -  To be done
     Irreps are as follows:

     mode #   7              mode #   8              mode #   9
     (  -0.00000  -0.00000 ) (  -0.00000   0.00000 ) (  -0.00000   0.00000 ) 
     (  -0.00000  -0.00000 ) (  -0.00000   0.00000 ) (  -0.00000   0.00000 ) 
     (  -0.00000  -0.00000 ) (  -0.00000   0.00000 ) (  -0.00000   0.00000 ) 
     (  -0.00000  -0.00000 ) (  -0.00000   0.00000 ) (  -0.00000   0.00000 ) 
     (  -0.00000  -0.00000 ) (  -0.00000   0.00000 ) (  -0.00000   0.00000 ) 
     (  -0.00000  -0.00000 ) (  -0.00000   0.00000 ) (  -0.00000   0.00000 ) 
     (  -0.00000  -0.00000 ) (  -0.00000   0.00000 ) (  -0.00000   0.00000 ) 
     (  -0.00000  -0.00000 ) (  -0.00000   0.00000 ) (  -0.00000   0.00000 ) 
     (  -0.00000  -0.00000 ) (  -0.00000   0.00000 ) (  -0.00000   0.00000 ) 
     (  -0.00000  -0.00000 ) (  -0.00000   0.00000 ) (  -1.00000  -0.00000 ) 
     (  -0.00000  -0.00000 ) (  -1.00000  -0.00000 ) (  -0.00000  -0.00000 ) 
     (  -1.00000  -0.00000 ) (  -0.00000  -0.00000 ) (  -0.00000  -0.00000 ) 

     Representation     4      3 modes -  To be done
     Irreps are as follows:

     mode #  10              mode #  11              mode #  12
     (  -0.00000  -0.00000 ) (  -0.00222  -0.00000 ) (  -0.67836  -0.00000 ) 
     (   0.00000   0.00000 ) (   0.67836   0.00000 ) (  -0.00222  -0.00000 ) 
     (  -0.28223  -0.00000 ) (  -0.00000  -0.00000 ) (  -0.00000  -0.00000 ) 
     (  -0.00000  -0.00000 ) (  -0.00222  -0.00000 ) (  -0.67836  -0.00000 ) 
     (  -0.00000  -0.00000 ) (  -0.28223  -0.00000 ) (   0.00092   0.00000 ) 
     (   0.67836   0.00000 ) (   0.00000   0.00000 ) (  -0.00000  -0.00000 ) 
     (   0.00000   0.00000 ) (   0.00092   0.00000 ) (   0.28223   0.00000 ) 
     (   0.00000  -0.00000 ) (   0.67836   0.00000 ) (  -0.00222  -0.00000 ) 
     (   0.67836   0.00000 ) (  -0.00000  -0.00000 ) (  -0.00000  -0.00000 ) 
     (  -0.00000   0.00000 ) (  -0.00000   0.00000 ) (  -0.00000   0.00000 ) 
     (  -0.00000   0.00000 ) (  -0.00000   0.00000 ) (  -0.00000   0.00000 ) 
     (  -0.00000   0.00000 ) (  -0.00000   0.00000 ) (  -0.00000   0.00000 ) 



     Alpha used in Ewald sum =   2.8000
     PHONON       :      0.82s CPU      1.48s WALL



     Representation #  1 modes #   1  2  3

     Self-consistent Calculation

     Pert. #  1: Fermi energy shift (Ry) =     8.6165E-27    -1.3322E-37
     Pert. #  2: Fermi energy shift (Ry) =     4.3082E-26    -1.5673E-37
     Pert. #  3: Fermi energy shift (Ry) =     8.6165E-27     5.2897E-38

      iter #   1 total cpu time :     3.0 secs   av.it.:  10.1
      thresh= 1.000E-02 alpha_mix =  0.500 |ddv_scf|^2 =  2.357E-07

     Pert. #  1: Fermi energy shift (Ry) =     0.0000E+00    -8.5713E-40
     Pert. #  2: Fermi energy shift (Ry) =    -4.3082E-27     2.4489E-40
     Pert. #  3: Fermi energy shift (Ry) =     1.0771E-27     4.5918E-40

      iter #   2 total cpu time :     4.6 secs   av.it.:  17.9
      thresh= 4.855E-05 alpha_mix =  0.500 |ddv_scf|^2 =  4.861E-09

     Pert. #  1: Fermi energy shift (Ry) =    -6.4623E-27    -1.3010E-40
     Pert. #  2: Fermi energy shift (Ry) =     0.0000E+00     7.6530E-41
     Pert. #  3: Fermi energy shift (Ry) =     1.6694E-26    -3.0803E-40

      iter #   3 total cpu time :     6.1 secs   av.it.:  18.3
      thresh= 6.972E-06 alpha_mix =  0.500 |ddv_scf|^2 =  2.255E-10

     Pert. #  1: Fermi energy shift (Ry) =     4.3082E-27    -1.9132E-41
     Pert. #  2: Fermi energy shift (Ry) =     2.1541E-26     9.5662E-42
     Pert. #  3: Fermi energy shift (Ry) =    -4.3082E-27    -3.0612E-41

      iter #   4 total cpu time :     7.6 secs   av.it.:  18.5
      thresh= 1.502E-06 alpha_mix =  0.500 |ddv_scf|^2 =  2.413E-12

     Pert. #  1: Fermi energy shift (Ry) =     1.5079E-26    -1.9132E-42
     Pert. #  2: Fermi energy shift (Ry) =     4.3082E-27    -1.5306E-41
     Pert. #  3: Fermi energy shift (Ry) =    -1.1848E-26     1.4349E-41

      iter #   5 total cpu time :     9.1 secs   av.it.:  19.1
      thresh= 1.553E-07 alpha_mix =  0.500 |ddv_scf|^2 =  5.755E-14

     Pert. #  1: Fermi energy shift (Ry) =    -4.3082E-27    -3.8265E-42
     Pert. #  2: Fermi energy shift (Ry) =     0.0000E+00     7.6530E-42
     Pert. #  3: Fermi energy shift (Ry) =    -5.9238E-27    -2.0089E-41

      iter #   6 total cpu time :    10.7 secs   av.it.:  18.4
      thresh= 2.399E-08 alpha_mix =  0.500 |ddv_scf|^2 =  4.781E-16

     End of self-consistent calculation

     Convergence has been achieved 


     Representation #  2 modes #   4  5  6

     Self-consistent Calculation

     Pert. #  1: Fermi energy shift (Ry) =    -8.8233E-24    -1.2539E-37
     Pert. #  2: Fermi energy shift (Ry) =     4.4116E-24    -2.3510E-38
     Pert. #  3: Fermi energy shift (Ry) =    -8.2718E-25     1.0677E-37

      iter #   1 total cpu time :    12.7 secs   av.it.:   9.8
      thresh= 1.000E-02 alpha_mix =  0.500 |ddv_scf|^2 =  1.491E-07

     Pert. #  1: Fermi energy shift (Ry) =     4.3082E-26     2.4489E-40
     Pert. #  2: Fermi energy shift (Ry) =     5.1699E-26     2.4489E-40
     Pert. #  3: Fermi energy shift (Ry) =    -1.9387E-26    -3.6352E-41

      iter #   2 total cpu time :    14.1 secs   av.it.:  17.9
      thresh= 3.862E-05 alpha_mix =  0.500 |ddv_scf|^2 =  6.999E-09

     Pert. #  1: Fermi energy shift (Ry) =     0.0000E+00     0.0000E+00
     Pert. #  2: Fermi energy shift (Ry) =     0.0000E+00     6.1224E-41
     Pert. #  3: Fermi energy shift (Ry) =     5.3853E-28     1.0427E-40

      iter #   3 total cpu time :    15.6 secs   av.it.:  17.9
      thresh= 8.366E-06 alpha_mix =  0.500 |ddv_scf|^2 =  1.067E-11

     Pert. #  1: Fermi energy shift (Ry) =    -8.6165E-27    -1.1479E-41
     Pert. #  2: Fermi energy shift (Ry) =    -6.4623E-27     8.3704E-42
     Pert. #  3: Fermi energy shift (Ry) =    -4.3082E-27    -4.1852E-42

      iter #   4 total cpu time :    17.1 secs   av.it.:  18.8
      thresh= 3.267E-07 alpha_mix =  0.500 |ddv_scf|^2 =  1.246E-13

     Pert. #  1: Fermi energy shift (Ry) =     8.6165E-27    -8.6096E-42
     Pert. #  2: Fermi energy shift (Ry) =    -1.2925E-26     4.3048E-42
     Pert. #  3: Fermi energy shift (Ry) =    -1.3463E-26    -5.6799E-43

      iter #   5 total cpu time :    18.6 secs   av.it.:  17.4
      thresh= 3.530E-08 alpha_mix =  0.500 |ddv_scf|^2 =  1.493E-14

     Pert. #  1: Fermi energy shift (Ry) =     0.0000E+00     2.3915E-42
     Pert. #  2: Fermi energy shift (Ry) =    -1.2925E-26     1.1958E-42
     Pert. #  3: Fermi energy shift (Ry) =    -1.2925E-26     3.2585E-42

      iter #   6 total cpu time :    20.1 secs   av.it.:  18.1
      thresh= 1.222E-08 alpha_mix =  0.500 |ddv_scf|^2 =  9.056E-18

     End of self-consistent calculation

     Convergence has been achieved 


     Representation #  3 modes #   7  8  9

     Self-consistent Calculation

     Pert. #  1: Fermi energy shift (Ry) =     0.0000E+00     0.0000E+00
     Pert. #  2: Fermi energy shift (Ry) =     0.0000E+00     0.0000E+00
     Pert. #  3: Fermi energy shift (Ry) =     0.0000E+00     0.0000E+00

      iter #   1 total cpu time :    21.3 secs   av.it.:   9.0
      thresh= 1.000E-02 alpha_mix =  0.500 |ddv_scf|^2 =  8.206E-08

     Pert. #  1: Fermi energy shift (Ry) =     0.0000E+00     0.0000E+00
     Pert. #  2: Fermi energy shift (Ry) =     0.0000E+00     0.0000E+00
     Pert. #  3: Fermi energy shift (Ry) =     0.0000E+00     0.0000E+00

      iter #   2 total cpu time :    22.7 secs   av.it.:  17.1
      thresh= 2.865E-05 alpha_mix =  0.500 |ddv_scf|^2 =  2.250E-10

     Pert. #  1: Fermi energy shift (Ry) =     0.0000E+00     0.0000E+00
     Pert. #  2: Fermi energy shift (Ry) =     0.0000E+00     0.0000E+00
     Pert. #  3: Fermi energy shift (Ry) =     0.0000E+00     0.0000E+00

      iter #   3 total cpu time :    24.2 secs   av.it.:  17.5
      thresh= 1.500E-06 alpha_mix =  0.500 |ddv_scf|^2 =  1.923E-11

     Pert. #  1: Fermi energy shift (Ry) =     0.0000E+00     0.0000E+00
     Pert. #  2: Fermi energy shift (Ry) =     0.0000E+00     0.0000E+00
     Pert. #  3: Fermi energy shift (Ry) =     0.0000E+00     0.0000E+00

      iter #   4 total cpu time :    25.6 secs   av.it.:  17.4
      thresh= 4.385E-07 alpha_mix =  0.500 |ddv_scf|^2 =  7.540E-13

     Pert. #  1: Fermi energy shift (Ry) =     0.0000E+00     0.0000E+00
     Pert. #  2: Fermi energy shift (Ry) =     0.0000E+00     0.0000E+00
     Pert. #  3: Fermi energy shift (Ry) =     0.0000E+00     0.0000E+00

      iter #   5 total cpu time :    27.0 secs   av.it.:  17.1
      thresh= 8.684E-08 alpha_mix =  0.500 |ddv_scf|^2 =  1.528E-15

     End of self-consistent calculation

     Convergence has been achieved 


     Representation #  4 modes #  10 11 12

     Self-consistent Calculation

     Pert. #  1: Fermi energy shift (Ry) =    -3.4466E-26     0.0000E+00
     Pert. #  2: Fermi energy shift (Ry) =    -3.2622E-27     0.0000E+00
     Pert. #  3: Fermi energy shift (Ry) =    -3.7428E-26     0.0000E+00

      iter #   1 total cpu time :    28.3 secs   av.it.:  10.2
      thresh= 1.000E-02 alpha_mix =  0.500 |ddv_scf|^2 =  5.180E-07

     Pert. #  1: Fermi energy shift (Ry) =    -1.7233E-26     0.0000E+00
     Pert. #  2: Fermi energy shift (Ry) =     2.0271E-27     6.5807E-41
     Pert. #  3: Fermi energy shift (Ry) =    -1.7839E-26     1.1862E-40

      iter #   2 total cpu time :    29.7 secs   av.it.:  17.4
      thresh= 7.197E-05 alpha_mix =  0.500 |ddv_scf|^2 =  3.112E-09

     Pert. #  1: Fermi energy shift (Ry) =    -1.7233E-26     0.0000E+00
     Pert. #  2: Fermi energy shift (Ry) =     6.6159E-28     1.4869E-41
     Pert. #  3: Fermi energy shift (Ry) =     1.6358E-26    -2.6403E-40

      iter #   3 total cpu time :    31.2 secs   av.it.:  17.8
      thresh= 5.578E-06 alpha_mix =  0.500 |ddv_scf|^2 =  1.264E-10

     Pert. #  1: Fermi energy shift (Ry) =     0.0000E+00     3.0612E-41
     Pert. #  2: Fermi energy shift (Ry) =     7.7361E-28    -3.0619E-41
     Pert. #  3: Fermi energy shift (Ry) =    -1.7704E-26    -3.1210E-41

      iter #   4 total cpu time :    32.8 secs   av.it.:  18.3
      thresh= 1.124E-06 alpha_mix =  0.500 |ddv_scf|^2 =  1.752E-12

     Pert. #  1: Fermi energy shift (Ry) =    -1.7233E-26     0.0000E+00
     Pert. #  2: Fermi energy shift (Ry) =    -4.2165E-28     7.4175E-43
     Pert. #  3: Fermi energy shift (Ry) =    -4.6448E-27     1.7937E-43

      iter #   5 total cpu time :    34.4 secs   av.it.:  18.2
      thresh= 1.324E-07 alpha_mix =  0.500 |ddv_scf|^2 =  3.534E-14

     Pert. #  1: Fermi energy shift (Ry) =     0.0000E+00     0.0000E+00
     Pert. #  2: Fermi energy shift (Ry) =    -9.6241E-28    -2.1487E-43
     Pert. #  3: Fermi energy shift (Ry) =    -1.7300E-26     1.7937E-43

      iter #   6 total cpu time :    35.9 secs   av.it.:  18.4
      thresh= 1.880E-08 alpha_mix =  0.500 |ddv_scf|^2 =  3.440E-16

     End of self-consistent calculation

     Convergence has been achieved 

     Number of q in the star =    1
     List of q in the star:
          1   0.000000000   0.000000000   0.000000000

     Diagonalizing the dynamical matrix

     q = (    0.000000000   0.000000000   0.000000000 ) 

 **************************************************************************
     freq (    1) =       2.330841 [THz] =      77.748497 [cm-1]
     freq (    2) =       2.330841 [THz] =      77.748497 [cm-1]
     freq (    3) =       2.330841 [THz] =      77.748497 [cm-1]
     freq (    4) =      11.210362 [THz] =     373.937414 [cm-1]
     freq (    5) =      11.210362 [THz] =     373.937414 [cm-1]
     freq (    6) =      11.210362 [THz] =     373.937414 [cm-1]
     freq (    7) =      12.081613 [THz] =     402.999240 [cm-1]
     freq (    8) =      12.081613 [THz] =     402.999240 [cm-1]
     freq (    9) =      12.081613 [THz] =     402.999240 [cm-1]
     freq (   10) =      27.463506 [THz] =     916.083940 [cm-1]
     freq (   11) =      27.463506 [THz] =     916.083940 [cm-1]
     freq (   12) =      27.463506 [THz] =     916.083940 [cm-1]
 **************************************************************************

     Calculation of q =    0.5000000   0.0000000   0.0000000

     Subspace diagonalization in iterative solution of the eigenvalue problem:
     one sub-group per band group will be used
     scalapack distributed-memory algorithm (size of sub-group:  2*  2 procs)


     Parallelization info
     --------------------
     sticks:   dense  smooth     PW     G-vecs:    dense   smooth      PW
     Min         233     233     69                 7532     7532    1223
     Max         235     235     70                 7535     7535    1226
     Sum        1869    1869    553                60269    60269    9795


     Title: 
     ReO3                                                                       


     bravais-lattice index     =            0
     lattice parameter (alat)  =       6.9807  a.u.
     unit-cell volume          =     340.1669 (a.u.)^3
     number of atoms/cell      =            4
     number of atomic types    =            2
     number of electrons       =        25.00
     number of Kohn-Sham states=           17
     kinetic-energy cutoff     =     120.0000  Ry
     charge density cutoff     =     480.0000  Ry
     Exchange-correlation      = PZ ( 1  1  0  0 0 0)

     celldm(1)=   6.980674  celldm(2)=   0.000000  celldm(3)=   0.000000
     celldm(4)=   0.000000  celldm(5)=   0.000000  celldm(6)=   0.000000

     crystal axes: (cart. coord. in units of alat)
               a(1) = (   1.000000   0.000000   0.000000 )  
               a(2) = (   0.000000   1.000000   0.000000 )  
               a(3) = (   0.000000   0.000000   1.000000 )  

     reciprocal axes: (cart. coord. in units 2 pi/alat)
               b(1) = (  1.000000  0.000000  0.000000 )  
               b(2) = (  0.000000  1.000000  0.000000 )  
               b(3) = (  0.000000  0.000000  1.000000 )  


     PseudoPot. # 1 for Re read from file:
     /public3/home/sc55341/softwares/pseudopotentials/Goedecker-Hartwigsen-Hutter-Teter/PZ/pz/Re.pz-hgh.UPF
     MD5 check sum: 1fa976f9f5bcd98ffd33c953de317e11
     Pseudo is Norm-conserving, Zval =  7.0
     Generated in analytical, separable form
     Using radial grid of 1275 points,  6 beta functions with: 
                l(1) =   0
                l(2) =   0
                l(3) =   1
                l(4) =   1
                l(5) =   2
                l(6) =   2

     PseudoPot. # 2 for O  read from file:
     /public3/home/sc55341/softwares/pseudopotentials/Goedecker-Hartwigsen-Hutter-Teter/PZ/pz/O.pz-hgh.UPF
     MD5 check sum: 3607071b9a75e1baafacfeb9942a3292
     Pseudo is Norm-conserving, Zval =  6.0
     Generated in analytical, separable form
     Using radial grid of 1095 points,  1 beta functions with: 
                l(1) =   0

     atomic species   valence    mass     pseudopotential
        Re             7.00   186.20700     Re( 1.00)
        O              6.00    15.99940     O ( 1.00)

     48 Sym. Ops., with inversion, found


                                    s                        frac. trans.

      isym =  1     identity                                     

 cryst.   s( 1) = (     1          0          0      )
                  (     0          1          0      )
                  (     0          0          1      )

 cart.    s( 1) = (  1.0000000  0.0000000  0.0000000 )
                  (  0.0000000  1.0000000  0.0000000 )
                  (  0.0000000  0.0000000  1.0000000 )


      isym =  2     180 deg rotation - cart. axis [0,0,1]        

 cryst.   s( 2) = (    -1          0          0      )
                  (     0         -1          0      )
                  (     0          0          1      )

 cart.    s( 2) = ( -1.0000000  0.0000000  0.0000000 )
                  (  0.0000000 -1.0000000  0.0000000 )
                  (  0.0000000  0.0000000  1.0000000 )


      isym =  3     180 deg rotation - cart. axis [0,1,0]        

 cryst.   s( 3) = (    -1          0          0      )
                  (     0          1          0      )
                  (     0          0         -1      )

 cart.    s( 3) = ( -1.0000000  0.0000000  0.0000000 )
                  (  0.0000000  1.0000000  0.0000000 )
                  (  0.0000000  0.0000000 -1.0000000 )


      isym =  4     180 deg rotation - cart. axis [1,0,0]        

 cryst.   s( 4) = (     1          0          0      )
                  (     0         -1          0      )
                  (     0          0         -1      )

 cart.    s( 4) = (  1.0000000  0.0000000  0.0000000 )
                  (  0.0000000 -1.0000000  0.0000000 )
                  (  0.0000000  0.0000000 -1.0000000 )


      isym =  5     inversion                                    

 cryst.   s( 5) = (    -1          0          0      )
                  (     0         -1          0      )
                  (     0          0         -1      )

 cart.    s( 5) = ( -1.0000000  0.0000000  0.0000000 )
                  (  0.0000000 -1.0000000  0.0000000 )
                  (  0.0000000  0.0000000 -1.0000000 )


      isym =  6     inv. 180 deg rotation - cart. axis [0,0,1]   

 cryst.   s( 6) = (     1          0          0      )
                  (     0          1          0      )
                  (     0          0         -1      )

 cart.    s( 6) = (  1.0000000  0.0000000  0.0000000 )
                  (  0.0000000  1.0000000  0.0000000 )
                  (  0.0000000  0.0000000 -1.0000000 )


      isym =  7     inv. 180 deg rotation - cart. axis [0,1,0]   

 cryst.   s( 7) = (     1          0          0      )
                  (     0         -1          0      )
                  (     0          0          1      )

 cart.    s( 7) = (  1.0000000  0.0000000  0.0000000 )
                  (  0.0000000 -1.0000000  0.0000000 )
                  (  0.0000000  0.0000000  1.0000000 )


      isym =  8     inv. 180 deg rotation - cart. axis [1,0,0]   

 cryst.   s( 8) = (    -1          0          0      )
                  (     0          1          0      )
                  (     0          0          1      )

 cart.    s( 8) = ( -1.0000000  0.0000000  0.0000000 )
                  (  0.0000000  1.0000000  0.0000000 )
                  (  0.0000000  0.0000000  1.0000000 )


      isym =  9     180 deg rotation - cart. axis [0,1,1]        

 cryst.   s( 9) = (    -1          0          0      )
                  (     0          0          1      )
                  (     0          1          0      )

[...]
        k(   11) = (   0.0625000   0.1875000   0.3125000), wk =   0.1875000
        k(   12) = (   0.5625000   0.6875000   0.8125000), wk =   0.0000000
        k(   13) = (   0.0625000   0.1875000   0.4375000), wk =   0.1875000
        k(   14) = (   0.5625000   0.6875000   0.9375000), wk =   0.0000000
        k(   15) = (   0.0625000   0.3125000   0.3125000), wk =   0.0937500
        k(   16) = (   0.5625000   0.8125000   0.8125000), wk =   0.0000000
        k(   17) = (   0.0625000   0.3125000   0.4375000), wk =   0.1875000
        k(   18) = (   0.5625000   0.8125000   0.9375000), wk =   0.0000000
        k(   19) = (   0.0625000   0.4375000   0.4375000), wk =   0.0937500
        k(   20) = (   0.5625000   0.9375000   0.9375000), wk =   0.0000000
        k(   21) = (   0.1875000   0.1875000   0.1875000), wk =   0.0312500
        k(   22) = (   0.6875000   0.6875000   0.6875000), wk =   0.0000000
        k(   23) = (   0.1875000   0.1875000   0.3125000), wk =   0.0937500
        k(   24) = (   0.6875000   0.6875000   0.8125000), wk =   0.0000000
        k(   25) = (   0.1875000   0.1875000   0.4375000), wk =   0.0937500
        k(   26) = (   0.6875000   0.6875000   0.9375000), wk =   0.0000000
        k(   27) = (   0.1875000   0.3125000   0.3125000), wk =   0.0937500
        k(   28) = (   0.6875000   0.8125000   0.8125000), wk =   0.0000000
        k(   29) = (   0.1875000   0.3125000   0.4375000), wk =   0.1875000
        k(   30) = (   0.6875000   0.8125000   0.9375000), wk =   0.0000000
        k(   31) = (   0.1875000   0.4375000   0.4375000), wk =   0.0937500
        k(   32) = (   0.6875000   0.9375000   0.9375000), wk =   0.0000000
        k(   33) = (   0.3125000   0.3125000   0.3125000), wk =   0.0312500
        k(   34) = (   0.8125000   0.8125000   0.8125000), wk =   0.0000000
        k(   35) = (   0.3125000   0.3125000   0.4375000), wk =   0.0937500
        k(   36) = (   0.8125000   0.8125000   0.9375000), wk =   0.0000000
        k(   37) = (   0.3125000   0.4375000   0.4375000), wk =   0.0937500
        k(   38) = (   0.8125000   0.9375000   0.9375000), wk =   0.0000000
        k(   39) = (   0.4375000   0.4375000   0.4375000), wk =   0.0312500
        k(   40) = (   0.9375000   0.9375000   0.9375000), wk =   0.0000000

     PseudoPot. # 1 for Re read from file:
     /public3/home/sc55341/softwares/pseudopotentials/Goedecker-Hartwigsen-Hutter-Teter/PZ/pz/Re.pz-hgh.UPF
     MD5 check sum: 1fa976f9f5bcd98ffd33c953de317e11
     Pseudo is Norm-conserving, Zval =  7.0
     Generated in analytical, separable form
     Using radial grid of 1275 points,  6 beta functions with: 
                l(1) =   0
                l(2) =   0
                l(3) =   1
                l(4) =   1
                l(5) =   2
                l(6) =   2

     PseudoPot. # 2 for O  read from file:
     /public3/home/sc55341/softwares/pseudopotentials/Goedecker-Hartwigsen-Hutter-Teter/PZ/pz/O.pz-hgh.UPF
     MD5 check sum: 3607071b9a75e1baafacfeb9942a3292
     Pseudo is Norm-conserving, Zval =  6.0
     Generated in analytical, separable form
     Using radial grid of 1095 points,  1 beta functions with: 
                l(1) =   0


     Atomic displacements:
     There are   5 irreducible representations

     Representation     1      1 modes -  To be done
     Irreps are as follows:

                     mode #   1
                     (   0.00000   0.00000   ) 
                     (  -0.00000   0.00000   ) 
                     (  -0.57735  -0.00000   ) 
                     (   0.00000  -0.00000   ) 
                     (  -0.57735  -0.00000   ) 
                     (  -0.00000   0.00000   ) 
                     (  -0.57735  -0.00000   ) 
                     (   0.00000  -0.00000   ) 
                     (  -0.00000   0.00000   ) 
                     (  -0.00000   0.00000   ) 
                     (  -0.00000   0.00000   ) 
                     (  -0.00000   0.00000   ) 

     Representation     2      3 modes -  To be done
     Irreps are as follows:

     mode #   2              mode #   3              mode #   4
     (   0.00000  -0.00000 ) (  -0.70711  -0.00000 ) (  -0.00000   0.00000 ) 
     (  -0.69810  -0.00000 ) (  -0.00000  -0.00000 ) (  -0.11252  -0.00000 ) 
     (  -0.00000  -0.00000 ) (  -0.00000  -0.00000 ) (   0.00000   0.00000 ) 
     (  -0.07053  -0.08767 ) (  -0.00000   0.00000 ) (   0.43758   0.54394 ) 
     (  -0.00000  -0.00000 ) (   0.00000  -0.00000 ) (   0.00000   0.00000 ) 
     (  -0.69810  -0.00000 ) (  -0.00000  -0.00000 ) (  -0.11252  -0.00000 ) 
     (   0.00000   0.00000 ) (  -0.00000  -0.00000 ) (   0.00000   0.00000 ) 
     (  -0.07053  -0.08767 ) (  -0.00000  -0.00000 ) (   0.43758   0.54394 ) 
     (   0.00000  -0.00000 ) (  -0.70711  -0.00000 ) (  -0.00000  -0.00000 ) 
     (   0.00000  -0.00000 ) (  -0.00000  -0.00000 ) (  -0.00000  -0.00000 ) 
     (   0.00000  -0.00000 ) (  -0.00000  -0.00000 ) (  -0.00000  -0.00000 ) 
     (   0.00000  -0.00000 ) (  -0.00000  -0.00000 ) (  -0.00000  -0.00000 ) 

     Representation     3      3 modes -  To be done
     Irreps are as follows:

     mode #   5              mode #   6              mode #   7
     (  -0.00000   0.00000 ) (  -0.00000  -0.00000 ) (  -0.00000   0.00000 ) 
     (  -0.00000   0.00000 ) (  -0.00000  -0.00000 ) (  -0.00000   0.00000 ) 
     (  -0.00000   0.00000 ) (  -0.00000  -0.00000 ) (  -0.00000   0.00000 ) 
     (  -0.00000   0.00000 ) (  -0.00000  -0.00000 ) (  -0.00000   0.00000 ) 
     (  -0.00000   0.00000 ) (  -0.00000  -0.00000 ) (  -0.00000   0.00000 ) 
     (  -0.00000   0.00000 ) (  -0.00000  -0.00000 ) (  -0.00000   0.00000 ) 
     (  -0.00000   0.00000 ) (  -0.00000  -0.00000 ) (  -0.00000   0.00000 ) 
     (  -0.00000   0.00000 ) (  -0.00000  -0.00000 ) (  -0.00000   0.00000 ) 
     (  -0.00000   0.00000 ) (  -0.00000  -0.00000 ) (  -0.00000   0.00000 ) 
     (  -1.00000  -0.00000 ) (  -0.00000  -0.00000 ) (  -0.00000   0.00000 ) 
     (  -0.00000  -0.00000 ) (  -0.00000  -0.00000 ) (  -1.00000  -0.00000 ) 
     (  -0.00000  -0.00000 ) (  -1.00000  -0.00000 ) (  -0.00000  -0.00000 ) 

     Representation     4      2 modes -  To be done
     Irreps are as follows:

           mode #   8                           mode #   9
           (  -0.00000   0.00000   )            (   0.00000   0.00000   ) 
           (   0.00000  -0.00000   )            (   0.00000  -0.00000   ) 
           (  -0.57735  -0.00000   )            (  -0.57735  -0.00000   ) 
           (   0.00000   0.00000   )            (  -0.00000   0.00000   ) 
           (   0.28868   0.50000   )            (   0.28868  -0.50000   ) 
           (   0.00000   0.00000   )            (  -0.00000   0.00000   ) 
           (   0.28868  -0.50000   )            (   0.28868   0.50000   ) 
           (  -0.00000  -0.00000   )            (  -0.00000   0.00000   ) 
           (  -0.00000  -0.00000   )            (  -0.00000   0.00000   ) 
           (  -0.00000  -0.00000   )            (  -0.00000   0.00000   ) 
           (  -0.00000  -0.00000   )            (  -0.00000   0.00000   ) 
           (  -0.00000  -0.00000   )            (  -0.00000   0.00000   ) 

     Representation     5      3 modes -  To be done
     Irreps are as follows:

     mode #  10              mode #  11              mode #  12
     (   0.00000  -0.00000 ) (  -0.00000   0.00000 ) (  -0.70711  -0.00000 ) 
     (  -0.70692  -0.00000 ) (  -0.01645  -0.00000 ) (  -0.00000  -0.00000 ) 
     (  -0.00000  -0.00000 ) (  -0.00000  -0.00000 ) (  -0.00000   0.00000 ) 
     (   0.00473   0.01576 ) (  -0.20337  -0.67703 ) (  -0.00000   0.00000 ) 
     (   0.00000   0.00000 ) (   0.00000   0.00000 ) (   0.00000  -0.00000 ) 
     (   0.70692   0.00000 ) (   0.01645   0.00000 ) (  -0.00000   0.00000 ) 
     (   0.00000   0.00000 ) (   0.00000  -0.00000 ) (  -0.00000   0.00000 ) 
     (  -0.00473  -0.01576 ) (   0.20337   0.67703 ) (   0.00000  -0.00000 ) 
     (  -0.00000  -0.00000 ) (  -0.00000  -0.00000 ) (   0.70711   0.00000 ) 
     (  -0.00000  -0.00000 ) (  -0.00000  -0.00000 ) (  -0.00000   0.00000 ) 
     (  -0.00000  -0.00000 ) (  -0.00000  -0.00000 ) (  -0.00000   0.00000 ) 
     (  -0.00000  -0.00000 ) (  -0.00000  -0.00000 ) (  -0.00000   0.00000 ) 



     Alpha used in Ewald sum =   2.8000
     PHONON       :   2m 1.40s CPU   2m14.42s WALL



     Representation #  1 mode #   1

     Self-consistent Calculation

      iter #   1 total cpu time :   135.5 secs   av.it.:  10.1
      thresh= 1.000E-02 alpha_mix =  0.500 |ddv_scf|^2 =  7.085E-05

      iter #   2 total cpu time :   136.2 secs   av.it.:  14.4
      thresh= 8.417E-04 alpha_mix =  0.500 |ddv_scf|^2 =  2.462E-04

      iter #   3 total cpu time :   136.7 secs   av.it.:  13.2
      thresh= 1.569E-03 alpha_mix =  0.500 |ddv_scf|^2 =  4.196E-07

      iter #   4 total cpu time :   137.2 secs   av.it.:  13.9
      thresh= 6.477E-05 alpha_mix =  0.500 |ddv_scf|^2 =  8.612E-10

      iter #   5 total cpu time :   137.8 secs   av.it.:  14.1
      thresh= 2.935E-06 alpha_mix =  0.500 |ddv_scf|^2 =  1.395E-11

      iter #   6 total cpu time :   138.4 secs   av.it.:  14.3
      thresh= 3.736E-07 alpha_mix =  0.500 |ddv_scf|^2 =  9.156E-15

     End of self-consistent calculation

     Convergence has been achieved 


     Representation #  2 modes #   2  3  4

     Self-consistent Calculation

      iter #   1 total cpu time :   139.7 secs   av.it.:  10.2
      thresh= 1.000E-02 alpha_mix =  0.500 |ddv_scf|^2 =  7.284E-07

      iter #   2 total cpu time :   141.1 secs   av.it.:  17.1
      thresh= 8.534E-05 alpha_mix =  0.500 |ddv_scf|^2 =  4.238E-09

      iter #   3 total cpu time :   142.5 secs   av.it.:  17.3
      thresh= 6.510E-06 alpha_mix =  0.500 |ddv_scf|^2 =  4.805E-11

      iter #   4 total cpu time :   144.0 secs   av.it.:  18.6
      thresh= 6.932E-07 alpha_mix =  0.500 |ddv_scf|^2 =  6.267E-13

      iter #   5 total cpu time :   145.5 secs   av.it.:  17.2
      thresh= 7.916E-08 alpha_mix =  0.500 |ddv_scf|^2 =  1.086E-14

      iter #   6 total cpu time :   147.0 secs   av.it.:  17.8
      thresh= 1.042E-08 alpha_mix =  0.500 |ddv_scf|^2 =  4.187E-17

     End of self-consistent calculation

     Convergence has been achieved 


     Representation #  3 modes #   5  6  7

     Self-consistent Calculation

      iter #   1 total cpu time :   148.9 secs   av.it.:   9.2
      thresh= 1.000E-02 alpha_mix =  0.500 |ddv_scf|^2 =  4.781E-07

      iter #   2 total cpu time :   150.6 secs   av.it.:  17.8
      thresh= 6.915E-05 alpha_mix =  0.500 |ddv_scf|^2 =  9.687E-07

      iter #   3 total cpu time :   152.1 secs   av.it.:  16.4
      thresh= 9.842E-05 alpha_mix =  0.500 |ddv_scf|^2 =  2.207E-08

      iter #   4 total cpu time :   153.5 secs   av.it.:  16.4
      thresh= 1.486E-05 alpha_mix =  0.500 |ddv_scf|^2 =  1.088E-11

      iter #   5 total cpu time :   154.9 secs   av.it.:  16.0
      thresh= 3.298E-07 alpha_mix =  0.500 |ddv_scf|^2 =  1.387E-12

      iter #   6 total cpu time :   156.3 secs   av.it.:  16.4
      thresh= 1.178E-07 alpha_mix =  0.500 |ddv_scf|^2 =  3.766E-14

      iter #   7 total cpu time :   157.8 secs   av.it.:  16.4
      thresh= 1.941E-08 alpha_mix =  0.500 |ddv_scf|^2 =  8.475E-18

     End of self-consistent calculation

     Convergence has been achieved 


     Representation #  4 modes #   8  9

     Self-consistent Calculation

      iter #   1 total cpu time :   158.7 secs   av.it.:   9.9
      thresh= 1.000E-02 alpha_mix =  0.500 |ddv_scf|^2 =  2.740E-07

      iter #   2 total cpu time :   159.6 secs   av.it.:  16.9
      thresh= 5.234E-05 alpha_mix =  0.500 |ddv_scf|^2 =  1.559E-08

      iter #   3 total cpu time :   160.5 secs   av.it.:  17.4
      thresh= 1.248E-05 alpha_mix =  0.500 |ddv_scf|^2 =  1.733E-11

      iter #   4 total cpu time :   161.5 secs   av.it.:  16.5
      thresh= 4.164E-07 alpha_mix =  0.500 |ddv_scf|^2 =  1.404E-13

      iter #   5 total cpu time :   162.6 secs   av.it.:  16.5
      thresh= 3.747E-08 alpha_mix =  0.500 |ddv_scf|^2 =  6.379E-15

     End of self-consistent calculation

     Convergence has been achieved 


     Representation #  5 modes #  10 11 12

     Self-consistent Calculation

      iter #   1 total cpu time :   163.8 secs   av.it.:   9.7
      thresh= 1.000E-02 alpha_mix =  0.500 |ddv_scf|^2 =  9.949E-08

      iter #   2 total cpu time :   165.2 secs   av.it.:  17.6
      thresh= 3.154E-05 alpha_mix =  0.500 |ddv_scf|^2 =  5.767E-09

      iter #   3 total cpu time :   166.7 secs   av.it.:  17.9
      thresh= 7.594E-06 alpha_mix =  0.500 |ddv_scf|^2 =  1.124E-11

      iter #   4 total cpu time :   168.2 secs   av.it.:  18.0
      thresh= 3.352E-07 alpha_mix =  0.500 |ddv_scf|^2 =  5.025E-14

      iter #   5 total cpu time :   169.6 secs   av.it.:  16.5
      thresh= 2.242E-08 alpha_mix =  0.500 |ddv_scf|^2 =  6.645E-15

     End of self-consistent calculation

     Convergence has been achieved 

     Number of q in the star =    1
     List of q in the star:
          1   0.500000000   0.500000000   0.500000000

     Diagonalizing the dynamical matrix

     q = (    0.500000000   0.500000000   0.500000000 ) 

 **************************************************************************
     freq (    1) =       1.319835 [THz] =      44.024956 [cm-1]
     freq (    2) =       1.319835 [THz] =      44.024956 [cm-1]
     freq (    3) =       1.319835 [THz] =      44.024956 [cm-1]
     freq (    4) =       9.642212 [THz] =     321.629557 [cm-1]
     freq (    5) =       9.642212 [THz] =     321.629557 [cm-1]
     freq (    6) =       9.642212 [THz] =     321.629557 [cm-1]
     freq (    7) =      15.137427 [THz] =     504.930200 [cm-1]
     freq (    8) =      15.137427 [THz] =     504.930200 [cm-1]
     freq (    9) =      15.137427 [THz] =     504.930200 [cm-1]
     freq (   10) =      29.851014 [THz] =     995.722655 [cm-1]
     freq (   11) =      29.851014 [THz] =     995.722655 [cm-1]
     freq (   12) =      36.282254 [THz] =    1210.245706 [cm-1]
 **************************************************************************

     init_run     :      0.35s CPU      0.40s WALL (       3 calls)
     electrons    :      3.42s CPU      3.75s WALL (       3 calls)

     Called by init_run:
     wfcinit      :      0.00s CPU      0.02s WALL (       3 calls)
     wfcinit:atom :      0.01s CPU      0.01s WALL (      26 calls)
     wfcinit:wfcr :      0.25s CPU      0.26s WALL (      26 calls)
     potinit      :      0.01s CPU      0.01s WALL (       3 calls)
     hinit0       :      0.21s CPU      0.21s WALL (       3 calls)

     Called by electrons:
     c_bands      :      3.41s CPU      3.72s WALL (       3 calls)
     v_of_rho     :      0.01s CPU      0.01s WALL (       4 calls)
     v_h          :      0.00s CPU      0.00s WALL (       4 calls)
     v_xc         :      0.01s CPU      0.01s WALL (       4 calls)

     Called by c_bands:
     init_us_2    :      0.26s CPU      0.31s WALL (     903 calls)
     cegterg      :      2.55s CPU      2.78s WALL (      36 calls)

     Called by sum_band:

     Called by *egterg:
     h_psi        :     83.71s CPU     85.27s WALL (   30576 calls)
     g_psi        :      0.02s CPU      0.02s WALL (     555 calls)
     cdiaghg      :      0.52s CPU      0.56s WALL (     581 calls)
     cegterg:over :      0.28s CPU      0.44s WALL (     555 calls)
     cegterg:upda :      0.12s CPU      0.13s WALL (     555 calls)
     cegterg:last :      0.07s CPU      0.07s WALL (     111 calls)
     cdiaghg:chol :      0.03s CPU      0.03s WALL (     581 calls)
     cdiaghg:inve :      0.01s CPU      0.01s WALL (     581 calls)
     cdiaghg:para :      0.05s CPU      0.06s WALL (    1162 calls)

     Called by h_psi:
     h_psi:pot    :     83.29s CPU     84.83s WALL (   30576 calls)
     h_psi:calbec :      2.23s CPU      2.28s WALL (   30576 calls)
     vloc_psi     :     79.34s CPU     80.80s WALL (   30576 calls)
     add_vuspsi   :      1.63s CPU      1.66s WALL (   30576 calls)

     General routines
     calbec       :      4.66s CPU      4.76s WALL (   61475 calls)
     fft          :      0.52s CPU      0.55s WALL (    1043 calls)
     ffts         :      0.23s CPU      0.23s WALL (     676 calls)
     fftw         :     77.98s CPU     79.63s WALL (  658622 calls)
     davcio       :      0.56s CPU      1.14s WALL (    6245 calls)

     Parallel routines
     fft_scatt_xy :      9.95s CPU     10.16s WALL (  660341 calls)
     fft_scatt_yz :     26.31s CPU     26.94s WALL (  660341 calls)

     PHONON       :   2m33.73s CPU   2m49.91s WALL

     INITIALIZATION: 
     phq_setup    :      0.02s CPU      0.12s WALL (       4 calls)
     phq_init     :      1.52s CPU      1.63s WALL (       4 calls)

     phq_init     :      1.52s CPU      1.63s WALL (       4 calls)
     init_vloc    :      0.08s CPU      0.08s WALL (       4 calls)
     init_us_1    :      0.11s CPU      0.11s WALL (       4 calls)

     DYNAMICAL MATRIX:
     dynmat0      :      0.33s CPU      0.43s WALL (       4 calls)
     phqscf       :    147.80s CPU    161.32s WALL (       4 calls)
     dynmatrix    :      0.11s CPU      0.18s WALL (       4 calls)

     phqscf       :    147.80s CPU    161.32s WALL (       4 calls)
     solve_linter :    147.45s CPU    159.57s WALL (      26 calls)
     drhodv       :      0.32s CPU      0.34s WALL (      26 calls)

     dynmat0      :      0.33s CPU      0.43s WALL (       4 calls)
     dynmat_us    :      0.27s CPU      0.28s WALL (       4 calls)
     d2ionq       :      0.05s CPU      0.05s WALL (       4 calls)

     dynmat_us    :      0.27s CPU      0.28s WALL (       4 calls)

     phqscf       :    147.80s CPU    161.32s WALL (       4 calls)
     solve_linter :    147.45s CPU    159.57s WALL (      26 calls)

     solve_linter :    147.45s CPU    159.57s WALL (      26 calls)
     dvqpsi_us    :      1.05s CPU      1.08s WALL (     192 calls)
     ortho        :      0.31s CPU      0.32s WALL (    1202 calls)
     cgsolve      :     94.07s CPU     95.84s WALL (    1202 calls)
     incdrhoscf   :      5.40s CPU      5.67s WALL (    1202 calls)
     vpsifft      :      3.97s CPU      4.20s WALL (    1010 calls)
     dv_of_drho   :      0.50s CPU      0.53s WALL (     296 calls)
     mix_pot      :      0.65s CPU      3.82s WALL (     165 calls)
     ef_shift     :      0.06s CPU      0.07s WALL (      27 calls)
     localdos     :      0.10s CPU      0.10s WALL (       4 calls)
     psymdvscf    :     32.62s CPU     32.96s WALL (     165 calls)

     dvqpsi_us    :      1.05s CPU      1.08s WALL (     192 calls)
     dvqpsi_us_on :      0.06s CPU      0.07s WALL (     192 calls)

     cgsolve      :     94.07s CPU     95.84s WALL (    1202 calls)
     ch_psi       :     89.80s CPU     91.46s WALL (   29959 calls)

     ch_psi       :     89.80s CPU     91.46s WALL (   29959 calls)
     h_psi        :     83.71s CPU     85.27s WALL (   30576 calls)
     last         :      6.73s CPU      6.86s WALL (   29959 calls)

     h_psi        :     83.71s CPU     85.27s WALL (   30576 calls)
     add_vuspsi   :      1.63s CPU      1.66s WALL (   30576 calls)

     incdrhoscf   :      5.40s CPU      5.67s WALL (    1202 calls)


      General routines
     calbec       :      4.66s CPU      4.76s WALL (   61475 calls)
     fft          :      0.52s CPU      0.55s WALL (    1043 calls)
     ffts         :      0.23s CPU      0.23s WALL (     676 calls)
     fftw         :     77.98s CPU     79.63s WALL (  658622 calls)
     davcio       :      0.56s CPU      1.14s WALL (    6245 calls)
     write_rec    :      0.16s CPU      7.07s WALL (     191 calls)


     PHONON       :   2m33.73s CPU   2m49.91s WALL


   This run was terminated on:   8:21: 0  27Jan2021            

=------------------------------------------------------------------------------=
   JOB DONE.
=------------------------------------------------------------------------------=
