
     Program PWSCF v.6.4 starts on 29Jan2021 at 22:57:54 

     This program is part of the open-source Quantum ESPRESSO suite
     for quantum simulation of materials; please cite
         "P. Giannozzi et al., J. Phys.:Condens. Matter 21 395502 (2009);
         "P. Giannozzi et al., J. Phys.:Condens. Matter 29 465901 (2017);
          URL http://www.quantum-espresso.org", 
     in publications or presentations arising from this work. More details at
     http://www.quantum-espresso.org/quote

     Parallel version (MPI), running on    64 processors

     MPI processes distributed on     1 nodes
     K-points division:     npool     =       8
     R & G space division:  proc/nbgrp/npool/nimage =       8
     Waiting for input...
     Reading input from standard input

     Current dimensions of program PWSCF are:
     Max number of different atomic species (ntypx) = 10
     Max number of k-points (npk) =  40000
     Max angular momentum in pseudopotentials (lmaxx) =  3

     Subspace diagonalization in iterative solution of the eigenvalue problem:
     one sub-group per band group will be used
     scalapack distributed-memory algorithm (size of sub-group:  2*  2 procs)


     Parallelization info
     --------------------
     sticks:   dense  smooth     PW     G-vecs:    dense   smooth      PW
     Min         239     239     69                 7913     7913    1203
     Max         240     240     70                 7916     7916    1205
     Sum        1917    1917    553                63317    63317    9627


     Title: 
     ReO3_vc-relax                                                              


     bravais-lattice index     =            1
     lattice parameter (alat)  =       7.0907  a.u.
     unit-cell volume          =     356.5045 (a.u.)^3
     number of atoms/cell      =            4
     number of atomic types    =            2
     number of electrons       =        33.00
     number of Kohn-Sham states=           58
     kinetic-energy cutoff     =     120.0000  Ry
     charge density cutoff     =     480.0000  Ry
     convergence threshold     =      1.0E-07
     mixing beta               =       0.8000
     number of iterations used =            8  plain     mixing
     Exchange-correlation      = SLA  PZ   NOGX NOGC ( 1  1  0  0 0 0)
     nstep                     =           50


     celldm(1)=   7.090687  celldm(2)=   0.000000  celldm(3)=   0.000000
     celldm(4)=   0.000000  celldm(5)=   0.000000  celldm(6)=   0.000000

     crystal axes: (cart. coord. in units of alat)
               a(1) = (   1.000000   0.000000   0.000000 )  
               a(2) = (   0.000000   1.000000   0.000000 )  
               a(3) = (   0.000000   0.000000   1.000000 )  

     reciprocal axes: (cart. coord. in units 2 pi/alat)
               b(1) = (  1.000000  0.000000  0.000000 )  
               b(2) = (  0.000000  1.000000  0.000000 )  
               b(3) = (  0.000000  0.000000  1.000000 )  


     PseudoPot. # 1 for Re read from file:
     /public3/home/sc55341/softwares/pseudopotentials/GBRV/all_lda_UPF_v1.5/re_lda_v1.2.uspp.F.UPF
     MD5 check sum: f5d4fabc9e0330d02dc570e1dd3d3f11
     Pseudo is Ultrasoft + core correction, Zval = 15.0
     Generated by new atomic code, or converted to UPF format
     Using radial grid of  981 points,  8 beta functions with: 
                l(1) =   0
                l(2) =   0
                l(3) =   1
                l(4) =   1
                l(5) =   2
                l(6) =   2
                l(7) =   3
                l(8) =   3
     Q(r) pseudized with  8 coefficients,  rinner =    1.150   1.150   1.150
                                                       1.150   1.150   1.150
                                                       1.150

     PseudoPot. # 2 for O  read from file:
     /public3/home/sc55341/softwares/pseudopotentials/GBRV/all_lda_UPF_v1.5/o_lda_v1.2.uspp.F.UPF
     MD5 check sum: 194b818514d2a7dbb603bb78519a4f40
     Pseudo is Ultrasoft + core correction, Zval =  6.0
     Generated by new atomic code, or converted to UPF format
     Using radial grid of  737 points,  5 beta functions with: 
                l(1) =   0
                l(2) =   0
                l(3) =   1
                l(4) =   1
                l(5) =   2
     Q(r) pseudized with  8 coefficients,  rinner =    0.900   0.900   0.900
                                                       0.900   0.900

     atomic species   valence    mass     pseudopotential
        Re            15.00   186.20700     Re( 1.00)
        O              6.00    15.99940     O ( 1.00)

     48 Sym. Ops., with inversion, found


                                    s                        frac. trans.

      isym =  1     identity                                     

 cryst.   s( 1) = (     1          0          0      )
                  (     0          1          0      )
                  (     0          0          1      )

 cart.    s( 1) = (  1.0000000  0.0000000  0.0000000 )
                  (  0.0000000  1.0000000  0.0000000 )
                  (  0.0000000  0.0000000  1.0000000 )


      isym =  2     180 deg rotation - cart. axis [0,0,1]        

 cryst.   s( 2) = (    -1          0          0      )
                  (     0         -1          0      )
                  (     0          0          1      )

 cart.    s( 2) = ( -1.0000000  0.0000000  0.0000000 )
                  (  0.0000000 -1.0000000  0.0000000 )
                  (  0.0000000  0.0000000  1.0000000 )


      isym =  3     180 deg rotation - cart. axis [0,1,0]        

 cryst.   s( 3) = (    -1          0          0      )
                  (     0          1          0      )
                  (     0          0         -1      )

 cart.    s( 3) = ( -1.0000000  0.0000000  0.0000000 )
                  (  0.0000000  1.0000000  0.0000000 )
                  (  0.0000000  0.0000000 -1.0000000 )


      isym =  4     180 deg rotation - cart. axis [1,0,0]        

 cryst.   s( 4) = (     1          0          0      )
                  (     0         -1          0      )
                  (     0          0         -1      )

 cart.    s( 4) = (  1.0000000  0.0000000  0.0000000 )
                  (  0.0000000 -1.0000000  0.0000000 )
                  (  0.0000000  0.0000000 -1.0000000 )


      isym =  5     180 deg rotation - cart. axis [1,1,0]        

 cryst.   s( 5) = (     0          1          0      )
                  (     1          0          0      )
                  (     0          0         -1      )

 cart.    s( 5) = (  0.0000000  1.0000000  0.0000000 )
                  (  1.0000000  0.0000000  0.0000000 )
                  (  0.0000000  0.0000000 -1.0000000 )


      isym =  6     180 deg rotation - cart. axis [1,-1,0]       

 cryst.   s( 6) = (     0         -1          0      )
                  (    -1          0          0      )
                  (     0          0         -1      )

 cart.    s( 6) = (  0.0000000 -1.0000000  0.0000000 )
                  ( -1.0000000  0.0000000  0.0000000 )
                  (  0.0000000  0.0000000 -1.0000000 )


      isym =  7      90 deg rotation - cart. axis [0,0,-1]       

 cryst.   s( 7) = (     0         -1          0      )
                  (     1          0          0      )
                  (     0          0          1      )

 cart.    s( 7) = (  0.0000000  1.0000000  0.0000000 )
                  ( -1.0000000  0.0000000  0.0000000 )
                  (  0.0000000  0.0000000  1.0000000 )


      isym =  8      90 deg rotation - cart. axis [0,0,1]        

 cryst.   s( 8) = (     0          1          0      )
                  (    -1          0          0      )
                  (     0          0          1      )

 cart.    s( 8) = (  0.0000000 -1.0000000  0.0000000 )
                  (  1.0000000  0.0000000  0.0000000 )
                  (  0.0000000  0.0000000  1.0000000 )


      isym =  9     180 deg rotation - cart. axis [1,0,1]        

 cryst.   s( 9) = (     0          0          1      )
                  (     0         -1          0      )
                  (     1          0          0      )

 cart.    s( 9) = (  0.0000000  0.0000000  1.0000000 )
                  (  0.0000000 -1.0000000  0.0000000 )
                  (  1.0000000  0.0000000  0.0000000 )


      isym = 10     180 deg rotation - cart. axis [-1,0,1]       

 cryst.   s(10) = (     0          0         -1      )
                  (     0         -1          0      )
                  (    -1          0          0      )

 cart.    s(10) = (  0.0000000  0.0000000 -1.0000000 )
                  (  0.0000000 -1.0000000  0.0000000 )
                  ( -1.0000000  0.0000000  0.0000000 )


      isym = 11      90 deg rotation - cart. axis [0,1,0]        

 cryst.   s(11) = (     0          0         -1      )
                  (     0          1          0      )
                  (     1          0          0      )

 cart.    s(11) = (  0.0000000  0.0000000  1.0000000 )
                  (  0.0000000  1.0000000  0.0000000 )
                  ( -1.0000000  0.0000000  0.0000000 )


      isym = 12      90 deg rotation - cart. axis [0,-1,0]       

 cryst.   s(12) = (     0          0          1      )
                  (     0          1          0      )
                  (    -1          0          0      )

 cart.    s(12) = (  0.0000000  0.0000000 -1.0000000 )
                  (  0.0000000  1.0000000  0.0000000 )
                  (  1.0000000  0.0000000  0.0000000 )


      isym = 13     180 deg rotation - cart. axis [0,1,1]        

 cryst.   s(13) = (    -1          0          0      )
                  (     0          0          1      )
                  (     0          1          0      )

 cart.    s(13) = ( -1.0000000  0.0000000  0.0000000 )
                  (  0.0000000  0.0000000  1.0000000 )
                  (  0.0000000  1.0000000  0.0000000 )


      isym = 14     180 deg rotation - cart. axis [0,1,-1]       

 cryst.   s(14) = (    -1          0          0      )
                  (     0          0         -1      )
                  (     0         -1          0      )

 cart.    s(14) = ( -1.0000000  0.0000000  0.0000000 )
                  (  0.0000000  0.0000000 -1.0000000 )
                  (  0.0000000 -1.0000000  0.0000000 )


      isym = 15      90 deg rotation - cart. axis [-1,0,0]       

 cryst.   s(15) = (     1          0          0      )
                  (     0          0         -1      )
                  (     0          1          0      )

 cart.    s(15) = (  1.0000000  0.0000000  0.0000000 )
                  (  0.0000000  0.0000000  1.0000000 )
                  (  0.0000000 -1.0000000  0.0000000 )


      isym = 16      90 deg rotation - cart. axis [1,0,0]        

 cryst.   s(16) = (     1          0          0      )
                  (     0          0          1      )
                  (     0         -1          0      )

 cart.    s(16) = (  1.0000000  0.0000000  0.0000000 )
                  (  0.0000000  0.0000000 -1.0000000 )
                  (  0.0000000  1.0000000  0.0000000 )


      isym = 17     120 deg rotation - cart. axis [-1,-1,-1]     

 cryst.   s(17) = (     0          0          1      )
                  (     1          0          0      )
                  (     0          1          0      )

 cart.    s(17) = (  0.0000000  1.0000000  0.0000000 )
                  (  0.0000000  0.0000000  1.0000000 )
                  (  1.0000000  0.0000000  0.0000000 )


      isym = 18     120 deg rotation - cart. axis [-1,1,1]       

 cryst.   s(18) = (     0          0         -1      )
                  (    -1          0          0      )
                  (     0          1          0      )

 cart.    s(18) = (  0.0000000 -1.0000000  0.0000000 )
                  (  0.0000000  0.0000000  1.0000000 )
                  ( -1.0000000  0.0000000  0.0000000 )


      isym = 19     120 deg rotation - cart. axis [1,1,-1]       

 cryst.   s(19) = (     0          0         -1      )
                  (     1          0          0      )
                  (     0         -1          0      )

 cart.    s(19) = (  0.0000000  1.0000000  0.0000000 )
                  (  0.0000000  0.0000000 -1.0000000 )
                  ( -1.0000000  0.0000000  0.0000000 )


      isym = 20     120 deg rotation - cart. axis [1,-1,1]       

 cryst.   s(20) = (     0          0          1      )
                  (    -1          0          0      )
                  (     0         -1          0      )

 cart.    s(20) = (  0.0000000 -1.0000000  0.0000000 )
                  (  0.0000000  0.0000000 -1.0000000 )
                  (  1.0000000  0.0000000  0.0000000 )


      isym = 21     120 deg rotation - cart. axis [1,1,1]        

 cryst.   s(21) = (     0          1          0      )
                  (     0          0          1      )
                  (     1          0          0      )

 cart.    s(21) = (  0.0000000  0.0000000  1.0000000 )
                  (  1.0000000  0.0000000  0.0000000 )
                  (  0.0000000  1.0000000  0.0000000 )


      isym = 22     120 deg rotation - cart. axis [-1,1,-1]      

 cryst.   s(22) = (     0         -1          0      )
                  (     0          0         -1      )
                  (     1          0          0      )

 cart.    s(22) = (  0.0000000  0.0000000  1.0000000 )
                  ( -1.0000000  0.0000000  0.0000000 )
                  (  0.0000000 -1.0000000  0.0000000 )


      isym = 23     120 deg rotation - cart. axis [1,-1,-1]      

 cryst.   s(23) = (     0         -1          0      )
                  (     0          0          1      )
                  (    -1          0          0      )

 cart.    s(23) = (  0.0000000  0.0000000 -1.0000000 )
                  ( -1.0000000  0.0000000  0.0000000 )
                  (  0.0000000  1.0000000  0.0000000 )


      isym = 24     120 deg rotation - cart. axis [-1,-1,1]      

 cryst.   s(24) = (     0          1          0      )
                  (     0          0         -1      )
                  (    -1          0          0      )

 cart.    s(24) = (  0.0000000  0.0000000 -1.0000000 )
                  (  1.0000000  0.0000000  0.0000000 )
                  (  0.0000000 -1.0000000  0.0000000 )


      isym = 25     inversion                                    

 cryst.   s(25) = (    -1          0          0      )
                  (     0         -1          0      )
                  (     0          0         -1      )

 cart.    s(25) = ( -1.0000000  0.0000000  0.0000000 )
                  (  0.0000000 -1.0000000  0.0000000 )
                  (  0.0000000  0.0000000 -1.0000000 )


      isym = 26     inv. 180 deg rotation - cart. axis [0,0,1]   

 cryst.   s(26) = (     1          0          0      )
                  (     0          1          0      )
                  (     0          0         -1      )

 cart.    s(26) = (  1.0000000  0.0000000  0.0000000 )
                  (  0.0000000  1.0000000  0.0000000 )
                  (  0.0000000  0.0000000 -1.0000000 )


      isym = 27     inv. 180 deg rotation - cart. axis [0,1,0]   

 cryst.   s(27) = (     1          0          0      )
                  (     0         -1          0      )
                  (     0          0          1      )

 cart.    s(27) = (  1.0000000  0.0000000  0.0000000 )
                  (  0.0000000 -1.0000000  0.0000000 )
                  (  0.0000000  0.0000000  1.0000000 )


      isym = 28     inv. 180 deg rotation - cart. axis [1,0,0]   

 cryst.   s(28) = (    -1          0          0      )
                  (     0          1          0      )
                  (     0          0          1      )

 cart.    s(28) = ( -1.0000000  0.0000000  0.0000000 )
                  (  0.0000000  1.0000000  0.0000000 )
                  (  0.0000000  0.0000000  1.0000000 )


      isym = 29     inv. 180 deg rotation - cart. axis [1,1,0]   

 cryst.   s(29) = (     0         -1          0      )
                  (    -1          0          0      )
                  (     0          0          1      )

 cart.    s(29) = (  0.0000000 -1.0000000  0.0000000 )
                  ( -1.0000000  0.0000000  0.0000000 )
                  (  0.0000000  0.0000000  1.0000000 )


      isym = 30     inv. 180 deg rotation - cart. axis [1,-1,0]  

 cryst.   s(30) = (     0          1          0      )
                  (     1          0          0      )
                  (     0          0          1      )

 cart.    s(30) = (  0.0000000  1.0000000  0.0000000 )
                  (  1.0000000  0.0000000  0.0000000 )
                  (  0.0000000  0.0000000  1.0000000 )


      isym = 31     inv.  90 deg rotation - cart. axis [0,0,-1]  

 cryst.   s(31) = (     0          1          0      )
                  (    -1          0          0      )
                  (     0          0         -1      )

 cart.    s(31) = (  0.0000000 -1.0000000  0.0000000 )
                  (  1.0000000  0.0000000  0.0000000 )
                  (  0.0000000  0.0000000 -1.0000000 )


      isym = 32     inv.  90 deg rotation - cart. axis [0,0,1]   

 cryst.   s(32) = (     0         -1          0      )
                  (     1          0          0      )
                  (     0          0         -1      )

 cart.    s(32) = (  0.0000000  1.0000000  0.0000000 )
                  ( -1.0000000  0.0000000  0.0000000 )
                  (  0.0000000  0.0000000 -1.0000000 )


      isym = 33     inv. 180 deg rotation - cart. axis [1,0,1]   

 cryst.   s(33) = (     0          0         -1      )
                  (     0          1          0      )
                  (    -1          0          0      )

 cart.    s(33) = (  0.0000000  0.0000000 -1.0000000 )
                  (  0.0000000  1.0000000  0.0000000 )
                  ( -1.0000000  0.0000000  0.0000000 )


      isym = 34     inv. 180 deg rotation - cart. axis [-1,0,1]  

 cryst.   s(34) = (     0          0          1      )
                  (     0          1          0      )
                  (     1          0          0      )

 cart.    s(34) = (  0.0000000  0.0000000  1.0000000 )
                  (  0.0000000  1.0000000  0.0000000 )
                  (  1.0000000  0.0000000  0.0000000 )


      isym = 35     inv.  90 deg rotation - cart. axis [0,1,0]   

 cryst.   s(35) = (     0          0          1      )
                  (     0         -1          0      )
                  (    -1          0          0      )

 cart.    s(35) = (  0.0000000  0.0000000 -1.0000000 )
                  (  0.0000000 -1.0000000  0.0000000 )
                  (  1.0000000  0.0000000  0.0000000 )


      isym = 36     inv.  90 deg rotation - cart. axis [0,-1,0]  

 cryst.   s(36) = (     0          0         -1      )
                  (     0         -1          0      )
                  (     1          0          0      )

 cart.    s(36) = (  0.0000000  0.0000000  1.0000000 )
                  (  0.0000000 -1.0000000  0.0000000 )
                  ( -1.0000000  0.0000000  0.0000000 )


      isym = 37     inv. 180 deg rotation - cart. axis [0,1,1]   

 cryst.   s(37) = (     1          0          0      )
                  (     0          0         -1      )
                  (     0         -1          0      )

 cart.    s(37) = (  1.0000000  0.0000000  0.0000000 )
                  (  0.0000000  0.0000000 -1.0000000 )
                  (  0.0000000 -1.0000000  0.0000000 )


      isym = 38     inv. 180 deg rotation - cart. axis [0,1,-1]  

 cryst.   s(38) = (     1          0          0      )
                  (     0          0          1      )
                  (     0          1          0      )

 cart.    s(38) = (  1.0000000  0.0000000  0.0000000 )
                  (  0.0000000  0.0000000  1.0000000 )
                  (  0.0000000  1.0000000  0.0000000 )


      isym = 39     inv.  90 deg rotation - cart. axis [-1,0,0]  

 cryst.   s(39) = (    -1          0          0      )
                  (     0          0          1      )
                  (     0         -1          0      )

 cart.    s(39) = ( -1.0000000  0.0000000  0.0000000 )
                  (  0.0000000  0.0000000 -1.0000000 )
                  (  0.0000000  1.0000000  0.0000000 )


      isym = 40     inv.  90 deg rotation - cart. axis [1,0,0]   

 cryst.   s(40) = (    -1          0          0      )
                  (     0          0         -1      )
                  (     0          1          0      )

 cart.    s(40) = ( -1.0000000  0.0000000  0.0000000 )
                  (  0.0000000  0.0000000  1.0000000 )
                  (  0.0000000 -1.0000000  0.0000000 )


      isym = 41     inv. 120 deg rotation - cart. axis [-1,-1,-1]

 cryst.   s(41) = (     0          0         -1      )
                  (    -1          0          0      )
                  (     0         -1          0      )

 cart.    s(41) = (  0.0000000 -1.0000000  0.0000000 )
                  (  0.0000000  0.0000000 -1.0000000 )
                  ( -1.0000000  0.0000000  0.0000000 )


      isym = 42     inv. 120 deg rotation - cart. axis [-1,1,1]  

 cryst.   s(42) = (     0          0          1      )
                  (     1          0          0      )
                  (     0         -1          0      )

 cart.    s(42) = (  0.0000000  1.0000000  0.0000000 )
                  (  0.0000000  0.0000000 -1.0000000 )
                  (  1.0000000  0.0000000  0.0000000 )


      isym = 43     inv. 120 deg rotation - cart. axis [1,1,-1]  

 cryst.   s(43) = (     0          0          1      )
                  (    -1          0          0      )
                  (     0          1          0      )

 cart.    s(43) = (  0.0000000 -1.0000000  0.0000000 )
                  (  0.0000000  0.0000000  1.0000000 )
                  (  1.0000000  0.0000000  0.0000000 )


      isym = 44     inv. 120 deg rotation - cart. axis [1,-1,1]  

 cryst.   s(44) = (     0          0         -1      )
                  (     1          0          0      )
                  (     0          1          0      )

 cart.    s(44) = (  0.0000000  1.0000000  0.0000000 )
                  (  0.0000000  0.0000000  1.0000000 )
                  ( -1.0000000  0.0000000  0.0000000 )


      isym = 45     inv. 120 deg rotation - cart. axis [1,1,1]   

 cryst.   s(45) = (     0         -1          0      )
                  (     0          0         -1      )
                  (    -1          0          0      )

 cart.    s(45) = (  0.0000000  0.0000000 -1.0000000 )
                  ( -1.0000000  0.0000000  0.0000000 )
                  (  0.0000000 -1.0000000  0.0000000 )


      isym = 46     inv. 120 deg rotation - cart. axis [-1,1,-1] 

 cryst.   s(46) = (     0          1          0      )
                  (     0          0          1      )
                  (    -1          0          0      )

 cart.    s(46) = (  0.0000000  0.0000000 -1.0000000 )
                  (  1.0000000  0.0000000  0.0000000 )
                  (  0.0000000  1.0000000  0.0000000 )


      isym = 47     inv. 120 deg rotation - cart. axis [1,-1,-1] 

 cryst.   s(47) = (     0          1          0      )
                  (     0          0         -1      )
                  (     1          0          0      )

 cart.    s(47) = (  0.0000000  0.0000000  1.0000000 )
                  (  1.0000000  0.0000000  0.0000000 )
                  (  0.0000000 -1.0000000  0.0000000 )


      isym = 48     inv. 120 deg rotation - cart. axis [-1,-1,1] 

 cryst.   s(48) = (     0         -1          0      )
                  (     0          0          1      )
                  (     1          0          0      )

 cart.    s(48) = (  0.0000000  0.0000000  1.0000000 )
                  ( -1.0000000  0.0000000  0.0000000 )
                  (  0.0000000  1.0000000  0.0000000 )


     point group O_h (m-3m) 
     there are 10 classes
     the character table:

       E     8C3   3C2   6C4   6C2'  i     8S6   3s_h  6S4   6s_d 
A_1g   1.00  1.00  1.00  1.00  1.00  1.00  1.00  1.00  1.00  1.00
A_2g   1.00  1.00  1.00 -1.00 -1.00  1.00  1.00  1.00 -1.00 -1.00
E_g    2.00 -1.00  2.00  0.00  0.00  2.00 -1.00  2.00  0.00  0.00
T_1g   3.00  0.00 -1.00  1.00 -1.00  3.00  0.00 -1.00  1.00 -1.00
T_2g   3.00  0.00 -1.00 -1.00  1.00  3.00  0.00 -1.00 -1.00  1.00
A_1u   1.00  1.00  1.00  1.00  1.00 -1.00 -1.00 -1.00 -1.00 -1.00
A_2u   1.00  1.00  1.00 -1.00 -1.00 -1.00 -1.00 -1.00  1.00  1.00
E_u    2.00 -1.00  2.00  0.00  0.00 -2.00  1.00 -2.00  0.00  0.00
T_1u   3.00  0.00 -1.00  1.00 -1.00 -3.00  0.00  1.00 -1.00  1.00
T_2u   3.00  0.00 -1.00 -1.00  1.00 -3.00  0.00  1.00  1.00 -1.00

     the symmetry operations in each class and the name of the first element:

     E        1
          identity                                               
     8C3     17   19   20   18   24   21   22   23
          120 deg rotation - cart. axis [-1,-1,-1]               
     3C2      2    4    3
          180 deg rotation - cart. axis [0,0,1]                  
     6C4      7    8   15   16   12   11
           90 deg rotation - cart. axis [0,0,-1]                 
     6C2'     5    6   14   13   10    9
          180 deg rotation - cart. axis [1,1,0]                  
     i       25
          inversion                                              
     8S6     41   43   44   42   48   45   46   47
          inv. 120 deg rotation - cart. axis [-1,-1,-1]          
     3s_h    26   28   27
          inv. 180 deg rotation - cart. axis [0,0,1]             
     6S4     31   32   39   40   36   35
          inv.  90 deg rotation - cart. axis [0,0,-1]            
     6s_d    29   30   38   37   34   33
          inv. 180 deg rotation - cart. axis [1,1,0]             

   Cartesian axes

     site n.     atom                  positions (alat units)
         1           O   tau(   1) = (   0.0000000   0.0000000   0.5000000  )
         2           O   tau(   2) = (   0.0000000   0.5000000   0.0000000  )
         3           O   tau(   3) = (   0.5000000   0.0000000   0.0000000  )
         4           Re  tau(   4) = (   0.0000000   0.0000000   0.0000000  )

   Crystallographic axes

     site n.     atom                  positions (cryst. coord.)
         1           O   tau(   1) = (  0.0000000  0.0000000  0.5000000  )
         2           O   tau(   2) = (  0.0000000  0.5000000  0.0000000  )
         3           O   tau(   3) = (  0.5000000  0.0000000  0.0000000  )
         4           Re  tau(   4) = (  0.0000000  0.0000000  0.0000000  )

     number of k points=    56  Methfessel-Paxton smearing, width (Ry)=  0.0200
                       cart. coord. in units 2pi/alat
        k(    1) = (   0.0416667   0.0416667   0.0416667), wk =   0.0092593
        k(    2) = (   0.0416667   0.0416667   0.1250000), wk =   0.0277778
        k(    3) = (   0.0416667   0.0416667   0.2083333), wk =   0.0277778
        k(    4) = (   0.0416667   0.0416667   0.2916667), wk =   0.0277778
        k(    5) = (   0.0416667   0.0416667   0.3750000), wk =   0.0277778
        k(    6) = (   0.0416667   0.0416667   0.4583333), wk =   0.0277778
        k(    7) = (   0.0416667   0.1250000   0.1250000), wk =   0.0277778
        k(    8) = (   0.0416667   0.1250000   0.2083333), wk =   0.0555556
        k(    9) = (   0.0416667   0.1250000   0.2916667), wk =   0.0555556
        k(   10) = (   0.0416667   0.1250000   0.3750000), wk =   0.0555556
        k(   11) = (   0.0416667   0.1250000   0.4583333), wk =   0.0555556
        k(   12) = (   0.0416667   0.2083333   0.2083333), wk =   0.0277778
        k(   13) = (   0.0416667   0.2083333   0.2916667), wk =   0.0555556
        k(   14) = (   0.0416667   0.2083333   0.3750000), wk =   0.0555556
        k(   15) = (   0.0416667   0.2083333   0.4583333), wk =   0.0555556
        k(   16) = (   0.0416667   0.2916667   0.2916667), wk =   0.0277778
        k(   17) = (   0.0416667   0.2916667   0.3750000), wk =   0.0555556
        k(   18) = (   0.0416667   0.2916667   0.4583333), wk =   0.0555556
        k(   19) = (   0.0416667   0.3750000   0.3750000), wk =   0.0277778
        k(   20) = (   0.0416667   0.3750000   0.4583333), wk =   0.0555556
        k(   21) = (   0.0416667   0.4583333   0.4583333), wk =   0.0277778
        k(   22) = (   0.1250000   0.1250000   0.1250000), wk =   0.0092593
        k(   23) = (   0.1250000   0.1250000   0.2083333), wk =   0.0277778
        k(   24) = (   0.1250000   0.1250000   0.2916667), wk =   0.0277778
        k(   25) = (   0.1250000   0.1250000   0.3750000), wk =   0.0277778
        k(   26) = (   0.1250000   0.1250000   0.4583333), wk =   0.0277778
        k(   27) = (   0.1250000   0.2083333   0.2083333), wk =   0.0277778
        k(   28) = (   0.1250000   0.2083333   0.2916667), wk =   0.0555556
        k(   29) = (   0.1250000   0.2083333   0.3750000), wk =   0.0555556
        k(   30) = (   0.1250000   0.2083333   0.4583333), wk =   0.0555556
        k(   31) = (   0.1250000   0.2916667   0.2916667), wk =   0.0277778
        k(   32) = (   0.1250000   0.2916667   0.3750000), wk =   0.0555556
        k(   33) = (   0.1250000   0.2916667   0.4583333), wk =   0.0555556
        k(   34) = (   0.1250000   0.3750000   0.3750000), wk =   0.0277778
        k(   35) = (   0.1250000   0.3750000   0.4583333), wk =   0.0555556
        k(   36) = (   0.1250000   0.4583333   0.4583333), wk =   0.0277778
        k(   37) = (   0.2083333   0.2083333   0.2083333), wk =   0.0092593
        k(   38) = (   0.2083333   0.2083333   0.2916667), wk =   0.0277778
        k(   39) = (   0.2083333   0.2083333   0.3750000), wk =   0.0277778
        k(   40) = (   0.2083333   0.2083333   0.4583333), wk =   0.0277778
        k(   41) = (   0.2083333   0.2916667   0.2916667), wk =   0.0277778
        k(   42) = (   0.2083333   0.2916667   0.3750000), wk =   0.0555556
        k(   43) = (   0.2083333   0.2916667   0.4583333), wk =   0.0555556
        k(   44) = (   0.2083333   0.3750000   0.3750000), wk =   0.0277778
        k(   45) = (   0.2083333   0.3750000   0.4583333), wk =   0.0555556
        k(   46) = (   0.2083333   0.4583333   0.4583333), wk =   0.0277778
        k(   47) = (   0.2916667   0.2916667   0.2916667), wk =   0.0092593
        k(   48) = (   0.2916667   0.2916667   0.3750000), wk =   0.0277778
        k(   49) = (   0.2916667   0.2916667   0.4583333), wk =   0.0277778
        k(   50) = (   0.2916667   0.3750000   0.3750000), wk =   0.0277778
        k(   51) = (   0.2916667   0.3750000   0.4583333), wk =   0.0555556
        k(   52) = (   0.2916667   0.4583333   0.4583333), wk =   0.0277778
        k(   53) = (   0.3750000   0.3750000   0.3750000), wk =   0.0092593
        k(   54) = (   0.3750000   0.3750000   0.4583333), wk =   0.0277778
        k(   55) = (   0.3750000   0.4583333   0.4583333), wk =   0.0277778
        k(   56) = (   0.4583333   0.4583333   0.4583333), wk =   0.0092593

                       cryst. coord.
        k(    1) = (   0.0416667   0.0416667   0.0416667), wk =   0.0092593
        k(    2) = (   0.0416667   0.0416667   0.1250000), wk =   0.0277778
        k(    3) = (   0.0416667   0.0416667   0.2083333), wk =   0.0277778
        k(    4) = (   0.0416667   0.0416667   0.2916667), wk =   0.0277778
        k(    5) = (   0.0416667   0.0416667   0.3750000), wk =   0.0277778
        k(    6) = (   0.0416667   0.0416667   0.4583333), wk =   0.0277778
        k(    7) = (   0.0416667   0.1250000   0.1250000), wk =   0.0277778
        k(    8) = (   0.0416667   0.1250000   0.2083333), wk =   0.0555556
        k(    9) = (   0.0416667   0.1250000   0.2916667), wk =   0.0555556
        k(   10) = (   0.0416667   0.1250000   0.3750000), wk =   0.0555556
        k(   11) = (   0.0416667   0.1250000   0.4583333), wk =   0.0555556
        k(   12) = (   0.0416667   0.2083333   0.2083333), wk =   0.0277778
        k(   13) = (   0.0416667   0.2083333   0.2916667), wk =   0.0555556
        k(   14) = (   0.0416667   0.2083333   0.3750000), wk =   0.0555556
        k(   15) = (   0.0416667   0.2083333   0.4583333), wk =   0.0555556
        k(   16) = (   0.0416667   0.2916667   0.2916667), wk =   0.0277778
        k(   17) = (   0.0416667   0.2916667   0.3750000), wk =   0.0555556
        k(   18) = (   0.0416667   0.2916667   0.4583333), wk =   0.0555556
        k(   19) = (   0.0416667   0.3750000   0.3750000), wk =   0.0277778
        k(   20) = (   0.0416667   0.3750000   0.4583333), wk =   0.0555556
        k(   21) = (   0.0416667   0.4583333   0.4583333), wk =   0.0277778
        k(   22) = (   0.1250000   0.1250000   0.1250000), wk =   0.0092593
        k(   23) = (   0.1250000   0.1250000   0.2083333), wk =   0.0277778
        k(   24) = (   0.1250000   0.1250000   0.2916667), wk =   0.0277778
        k(   25) = (   0.1250000   0.1250000   0.3750000), wk =   0.0277778
        k(   26) = (   0.1250000   0.1250000   0.4583333), wk =   0.0277778
        k(   27) = (   0.1250000   0.2083333   0.2083333), wk =   0.0277778
        k(   28) = (   0.1250000   0.2083333   0.2916667), wk =   0.0555556
        k(   29) = (   0.1250000   0.2083333   0.3750000), wk =   0.0555556
        k(   30) = (   0.1250000   0.2083333   0.4583333), wk =   0.0555556
        k(   31) = (   0.1250000   0.2916667   0.2916667), wk =   0.0277778
        k(   32) = (   0.1250000   0.2916667   0.3750000), wk =   0.0555556
        k(   33) = (   0.1250000   0.2916667   0.4583333), wk =   0.0555556
        k(   34) = (   0.1250000   0.3750000   0.3750000), wk =   0.0277778
        k(   35) = (   0.1250000   0.3750000   0.4583333), wk =   0.0555556
        k(   36) = (   0.1250000   0.4583333   0.4583333), wk =   0.0277778
        k(   37) = (   0.2083333   0.2083333   0.2083333), wk =   0.0092593
        k(   38) = (   0.2083333   0.2083333   0.2916667), wk =   0.0277778
        k(   39) = (   0.2083333   0.2083333   0.3750000), wk =   0.0277778
        k(   40) = (   0.2083333   0.2083333   0.4583333), wk =   0.0277778
        k(   41) = (   0.2083333   0.2916667   0.2916667), wk =   0.0277778
        k(   42) = (   0.2083333   0.2916667   0.3750000), wk =   0.0555556
        k(   43) = (   0.2083333   0.2916667   0.4583333), wk =   0.0555556
        k(   44) = (   0.2083333   0.3750000   0.3750000), wk =   0.0277778
        k(   45) = (   0.2083333   0.3750000   0.4583333), wk =   0.0555556
        k(   46) = (   0.2083333   0.4583333   0.4583333), wk =   0.0277778
        k(   47) = (   0.2916667   0.2916667   0.2916667), wk =   0.0092593
        k(   48) = (   0.2916667   0.2916667   0.3750000), wk =   0.0277778
        k(   49) = (   0.2916667   0.2916667   0.4583333), wk =   0.0277778
        k(   50) = (   0.2916667   0.3750000   0.3750000), wk =   0.0277778
        k(   51) = (   0.2916667   0.3750000   0.4583333), wk =   0.0555556
        k(   52) = (   0.2916667   0.4583333   0.4583333), wk =   0.0277778
        k(   53) = (   0.3750000   0.3750000   0.3750000), wk =   0.0092593
        k(   54) = (   0.3750000   0.3750000   0.4583333), wk =   0.0277778
        k(   55) = (   0.3750000   0.4583333   0.4583333), wk =   0.0277778
        k(   56) = (   0.4583333   0.4583333   0.4583333), wk =   0.0092593

     Dense  grid:    63317 G-vectors     FFT dimensions: (  50,  50,  50)

     Dynamical RAM for                 wfc:       0.88 MB

     Dynamical RAM for     wfc (w. buffer):       7.00 MB

     Dynamical RAM for           str. fact:       0.24 MB

     Dynamical RAM for           local pot:       0.00 MB

     Dynamical RAM for          nlocal pot:       1.07 MB

     Dynamical RAM for                qrad:      19.04 MB

     Dynamical RAM for          rho,v,vnew:       0.76 MB

     Dynamical RAM for               rhoin:       0.25 MB

     Dynamical RAM for            rho*nmix:       1.93 MB

     Dynamical RAM for           G-vectors:       0.51 MB

     Dynamical RAM for          h,s,v(r/c):       0.62 MB

     Dynamical RAM for          <psi|beta>:       0.06 MB

     Dynamical RAM for                 psi:       3.50 MB

     Dynamical RAM for                hpsi:       3.50 MB

     Dynamical RAM for                spsi:       3.50 MB

     Dynamical RAM for      wfcinit/wfcrot:       1.83 MB

     Dynamical RAM for           addusdens:       8.53 MB

     Dynamical RAM for          addusforce:       8.64 MB

     Dynamical RAM for         addusstress:       8.84 MB

     Estimated static dynamical RAM per process >      31.85 MB

     Estimated max dynamical RAM per process >      43.03 MB

     Estimated total dynamical RAM >       2.69 GB

     Initial potential from superposition of free atoms

     starting charge   32.49996, renormalised to   33.00000

     negative rho (up, down):  1.335E-01 0.000E+00
     Starting wfcs are   25 randomized atomic wfcs +   33 random wfcs

     total cpu time spent up to now is        1.4 secs

     Self-consistent Calculation

     iteration #  1     ecut=   120.00 Ry     beta= 0.80
     Davidson diagonalization with overlap
     ethr =  1.00E-02,  avg # of iterations =  5.2

     negative rho (up, down):  1.539E-01 0.000E+00

     total cpu time spent up to now is        3.0 secs

     total energy              =    -286.78332881 Ry
     Harris-Foulkes estimate   =    -288.02017760 Ry
     estimated scf accuracy    <       1.43889907 Ry

     iteration #  2     ecut=   120.00 Ry     beta= 0.80
     Davidson diagonalization with overlap
     ethr =  4.36E-03,  avg # of iterations =  2.1

     negative rho (up, down):  1.380E-01 0.000E+00

     total cpu time spent up to now is        3.8 secs

     total energy              =    -285.91334612 Ry
     Harris-Foulkes estimate   =    -289.43306284 Ry
     estimated scf accuracy    <       9.78981555 Ry

     iteration #  3     ecut=   120.00 Ry     beta= 0.80
     Davidson diagonalization with overlap
     ethr =  4.36E-03,  avg # of iterations =  1.8

     negative rho (up, down):  1.408E-01 0.000E+00

     total cpu time spent up to now is        4.4 secs

     total energy              =    -287.65548071 Ry
     Harris-Foulkes estimate   =    -287.67454389 Ry
     estimated scf accuracy    <       0.07797201 Ry

     iteration #  4     ecut=   120.00 Ry     beta= 0.80
     Davidson diagonalization with overlap
     ethr =  2.36E-04,  avg # of iterations =  2.4

     negative rho (up, down):  1.443E-01 0.000E+00

     total cpu time spent up to now is        5.2 secs

     total energy              =    -287.64763372 Ry
     Harris-Foulkes estimate   =    -287.65944117 Ry
     estimated scf accuracy    <       0.02586311 Ry

     iteration #  5     ecut=   120.00 Ry     beta= 0.80
     Davidson diagonalization with overlap
     ethr =  7.84E-05,  avg # of iterations =  1.3

     negative rho (up, down):  1.446E-01 0.000E+00

     total cpu time spent up to now is        5.8 secs

     total energy              =    -287.65295455 Ry
     Harris-Foulkes estimate   =    -287.65313932 Ry
     estimated scf accuracy    <       0.00045525 Ry

     iteration #  6     ecut=   120.00 Ry     beta= 0.80
     Davidson diagonalization with overlap
     ethr =  1.38E-06,  avg # of iterations =  4.5

     negative rho (up, down):  1.447E-01 0.000E+00

     total cpu time spent up to now is        6.8 secs

     total energy              =    -287.65303908 Ry
     Harris-Foulkes estimate   =    -287.65303978 Ry
     estimated scf accuracy    <       0.00000146 Ry

     iteration #  7     ecut=   120.00 Ry     beta= 0.80
     Davidson diagonalization with overlap
     ethr =  4.42E-09,  avg # of iterations =  2.1

     negative rho (up, down):  1.447E-01 0.000E+00

     total cpu time spent up to now is        7.5 secs

     End of self-consistent calculation

          k = 0.0417 0.0417 0.0417 (  7938 PWs)   bands (ev):

   -74.5702 -36.3811 -36.3811 -36.3811 -12.1805 -11.2581 -11.2581   2.7188
     2.7326   2.7326   4.6874   4.6874   4.8186   5.0369   5.0439   5.0439
     6.1377   6.1979   6.1979  11.0432  11.0432  13.0803  20.2446  20.5447
    20.5447  23.2064  23.2714  23.2714  27.5236  28.0192  28.0192  30.6168
    31.2423  32.1918  32.1918  33.0776  33.1709  33.1709  33.3173  36.2537
    36.2537  36.3175  43.2231  43.2231  43.6906  45.3118  45.3118  45.3269
    45.5517  45.5517  47.0661  47.0661  47.6858  49.0042  49.0042  49.0179
    49.2527  50.2072

     occupation numbers 
     1.0000   1.0000   1.0000   1.0000   1.0000   1.0000   1.0000   1.0000
     1.0000   1.0000   1.0000   1.0000   1.0000   1.0000   1.0000   1.0000
     1.0000   1.0000   1.0000  -0.0000  -0.0000  -0.0000  -0.0000  -0.0000
    -0.0000  -0.0000  -0.0000  -0.0000  -0.0000  -0.0000  -0.0000  -0.0000
    -0.0000  -0.0000  -0.0000  -0.0000  -0.0000  -0.0000  -0.0000  -0.0000
    -0.0000  -0.0000  -0.0000  -0.0000  -0.0000  -0.0000  -0.0000  -0.0000
    -0.0000  -0.0000  -0.0000  -0.0000  -0.0000  -0.0000  -0.0000  -0.0000
    -0.0000  -0.0000

          k = 0.0417 0.0417 0.1250 (  7963 PWs)   bands (ev):

   -74.5702 -36.3869 -36.3807 -36.3807 -12.1081 -11.2548 -11.1611   2.2106
     2.6923   2.7021   4.1278   4.1429   4.6968   4.7701   5.0201   5.0456
     6.1769   6.8958   6.9138  11.0443  11.7991  13.3338  20.0289  20.5411
    20.7591  23.1550  23.2332  23.8115  26.7750  27.3196  27.8608  30.4159
    30.8847  32.6545  32.6989  32.9211  33.1772  33.2808  34.6099  35.7849
    35.8115  36.7271  41.0642  43.6278  44.0363  44.3029  44.9226  44.9385
    45.5495  46.0464  46.9789  48.2152  48.8180  49.0723  49.1864  49.3996
    50.1749  50.2157

     occupation numbers 
     1.0000   1.0000   1.0000   1.0000   1.0000   1.0000   1.0000   1.0000
     1.0000   1.0000   1.0000   1.0000   1.0000   1.0000   1.0000   1.0000
     1.0000   1.0000   1.0000  -0.0000  -0.0000  -0.0000  -0.0000  -0.0000
    -0.0000  -0.0000  -0.0000  -0.0000  -0.0000  -0.0000  -0.0000  -0.0000
    -0.0000  -0.0000  -0.0000  -0.0000  -0.0000  -0.0000  -0.0000  -0.0000
    -0.0000  -0.0000  -0.0000  -0.0000  -0.0000  -0.0000  -0.0000  -0.0000
    -0.0000  -0.0000  -0.0000  -0.0000  -0.0000  -0.0000  -0.0000  -0.0000
    -0.0000  -0.0000

          k = 0.0417 0.0417 0.2083 (  7943 PWs)   bands (ev):

   -74.5703 -36.3970 -36.3800 -36.3800 -12.0069 -11.2490 -10.9492   1.2529
     2.6070   2.6219   3.6152   3.6530   4.3216   4.7676   4.9504   5.0512
     6.1872   7.7701   7.7818  11.0461  12.7425  13.8508  19.4018  20.9597
    21.1477  23.0599  23.1824  24.7028  25.9791  26.3459  27.2860  29.6062
    31.1901  32.3233  32.6564  32.6695  34.0481  34.4003  35.2587  35.2649
    36.0635  37.6250  38.7425  43.0422  44.0236  44.1966  44.5878  44.8916
    45.9915  46.3130  47.0424  48.0663  48.8003  48.9594  49.7629  49.7946
    50.6255  50.7899

     occupation numbers 
     1.0000   1.0000   1.0000   1.0000   1.0000   1.0000   1.0000   1.0000
     1.0000   1.0000   1.0000   1.0000   1.0000   1.0000   1.0000   1.0000
     1.0000   0.8286   0.8012  -0.0000  -0.0000  -0.0000  -0.0000  -0.0000
    -0.0000  -0.0000  -0.0000  -0.0000  -0.0000  -0.0000  -0.0000  -0.0000
    -0.0000  -0.0000  -0.0000  -0.0000  -0.0000  -0.0000  -0.0000  -0.0000
    -0.0000  -0.0000  -0.0000  -0.0000  -0.0000  -0.0000  -0.0000  -0.0000
    -0.0000  -0.0000  -0.0000  -0.0000  -0.0000  -0.0000  -0.0000  -0.0000
    -0.0000  -0.0000

          k = 0.0417 0.0417 0.2917 (  7923 PWs)   bands (ev):

   -74.5704 -36.4087 -36.3792 -36.3792 -11.9232 -11.2423 -10.6326   0.1540
     2.4466   2.4717   3.3173   3.3462   4.0425   4.7748   4.8672   5.0579
     6.1985   8.6051   8.6143  11.0479  13.4840  14.5684  18.6894  21.5732
    21.6289  22.9810  23.1659  24.9990  25.3389  26.0659  26.7092  28.8188
    31.5178  31.7860  32.2700  32.4093  34.2241  34.4917  35.8553  36.1999
    36.3407  37.8842  38.9257  42.0159  43.5456  43.5890  45.0491  45.3713
    46.1350  46.5184  47.1472  47.1966  48.6481  48.7211  49.5336  49.6433
    50.3240  51.1443

     occupation numbers 
     1.0000   1.0000   1.0000   1.0000   1.0000   1.0000   1.0000   1.0000
     1.0000   1.0000   1.0000   1.0000   1.0000   1.0000   1.0000   1.0000
     1.0000  -0.0006  -0.0005  -0.0000  -0.0000  -0.0000  -0.0000  -0.0000
    -0.0000  -0.0000  -0.0000  -0.0000  -0.0000  -0.0000  -0.0000  -0.0000
    -0.0000  -0.0000  -0.0000  -0.0000  -0.0000  -0.0000  -0.0000  -0.0000
    -0.0000  -0.0000  -0.0000  -0.0000  -0.0000  -0.0000  -0.0000  -0.0000
    -0.0000  -0.0000  -0.0000  -0.0000  -0.0000  -0.0000  -0.0000  -0.0000
    -0.0000  -0.0000

          k = 0.0417 0.0417 0.3750 (  7916 PWs)   bands (ev):

   -74.5704 -36.4187 -36.3785 -36.3785 -11.8713 -11.2365 -10.2929  -0.7807
     2.2642   2.2972   3.1904   3.2064   3.8571   4.7816   4.7958   5.0637
     6.2083   9.2749   9.2830  11.0490  14.0023  15.2617  17.9901  22.0866
    22.2285  22.9725  23.2342  24.2844  24.4394  26.2812  27.5099  28.2185
    31.2565  31.6497  31.9403  32.2258  33.2741  34.1714  34.8052  37.4839
    37.8679  39.3872  40.4422  41.3196  42.5925  42.6667  44.8452  45.5898
    45.9115  46.5795  46.8230  47.6074  47.9019  48.2610  48.9219  49.2960
    49.7621  50.3099

     occupation numbers 
     1.0000   1.0000   1.0000   1.0000   1.0000   1.0000   1.0000   1.0000
     1.0000   1.0000   1.0000   1.0000   1.0000   1.0000   1.0000   1.0000
     1.0000  -0.0000  -0.0000  -0.0000  -0.0000  -0.0000  -0.0000  -0.0000
    -0.0000  -0.0000  -0.0000  -0.0000  -0.0000  -0.0000  -0.0000  -0.0000
    -0.0000  -0.0000  -0.0000  -0.0000  -0.0000  -0.0000  -0.0000  -0.0000
    -0.0000  -0.0000  -0.0000  -0.0000  -0.0000  -0.0000  -0.0000  -0.0000
    -0.0000  -0.0000  -0.0000  -0.0000  -0.0000  -0.0000  -0.0000  -0.0000
    -0.0000  -0.0000

          k = 0.0417 0.0417 0.4583 (  7913 PWs)   bands (ev):

   -74.5705 -36.4245 -36.3781 -36.3781 -11.8473 -11.2332 -10.0654  -1.3218
     2.1507   2.1867   3.1483   3.1573   3.7626   4.7550   4.7855   5.0670
     6.2139   9.6540   9.6620  11.0491  14.2906  15.7572  17.4545  22.3955
    22.7255  22.9824  23.4054  23.7773  23.7817  26.0681  27.7617  29.3056
    30.9152  31.3539  31.7376  31.7591  32.2343  34.0058  34.3559  39.1027
    39.5927  40.5420  40.9607  41.0860  41.2496  42.2697  44.3504  45.0219
    45.6775  45.9450  46.9120  47.3387  47.9349  48.0649  48.8291  48.9826
    49.7216  50.0118

     occupation numbers 
     1.0000   1.0000   1.0000   1.0000   1.0000   1.0000   1.0000   1.0000
     1.0000   1.0000   1.0000   1.0000   1.0000   1.0000   1.0000   1.0000
     1.0000  -0.0000  -0.0000  -0.0000  -0.0000  -0.0000  -0.0000  -0.0000
    -0.0000  -0.0000  -0.0000  -0.0000  -0.0000  -0.0000  -0.0000  -0.0000
    -0.0000  -0.0000  -0.0000  -0.0000  -0.0000  -0.0000  -0.0000  -0.0000
    -0.0000  -0.0000  -0.0000  -0.0000  -0.0000  -0.0000  -0.0000  -0.0000
    -0.0000  -0.0000  -0.0000  -0.0000  -0.0000  -0.0000  -0.0000  -0.0000
    -0.0000  -0.0000

          k = 0.0417 0.1250 0.1250 (  7947 PWs)   bands (ev):

   -74.5703 -36.3866 -36.3865 -36.3803 -12.0297 -11.2001 -11.1211   2.1852
     2.1986   2.6724   3.5693   3.9805   4.3250   4.7395   4.8663   5.1165
     6.8204   6.9839   7.3089  11.4163  12.2089  13.5639  20.1828  20.2273
    20.8426  23.0795  23.6422  23.8601  26.0845  26.8101  28.1405  30.1524
    31.1414  31.9810  32.6646  33.0090  33.0672  33.7921  35.2073  35.8851
    36.0227  36.5501  41.1265  42.0227  43.8990  44.2807  44.3848  44.6204
    45.9397  46.5753  47.4618  48.3586  48.9985  49.0205  49.5671  50.0942
    50.2913  50.5729

     occupation numbers 
     1.0000   1.0000   1.0000   1.0000   1.0000   1.0000   1.0000   1.0000
     1.0000   1.0000   1.0000   1.0000   1.0000   1.0000   1.0000   1.0000
     1.0000   1.0000   1.0052  -0.0000  -0.0000  -0.0000  -0.0000  -0.0000
    -0.0000  -0.0000  -0.0000  -0.0000  -0.0000  -0.0000  -0.0000  -0.0000
    -0.0000  -0.0000  -0.0000  -0.0000  -0.0000  -0.0000  -0.0000  -0.0000
    -0.0000  -0.0000  -0.0000  -0.0000  -0.0000  -0.0000  -0.0000  -0.0000
    -0.0000  -0.0000  -0.0000  -0.0000  -0.0000  -0.0000  -0.0000  -0.0000
    -0.0000  -0.0000

          k = 0.0417 0.1250 0.2083 (  7948 PWs)   bands (ev):

   -74.5703 -36.3966 -36.3858 -36.3796 -11.9211 -11.1748 -10.9355   1.2500
     2.1375   2.6023   3.0251   3.5581   4.2451   4.4945   4.8484   5.1316
     6.8989   7.7834   7.9920  11.5278  13.0986  14.0349  19.5478  20.5497
    21.2153  22.9201  23.6574  24.5255  25.5000  26.0014  27.8633  30.1941
    30.5440  31.9928  32.6571  32.7599  33.2166  34.5740  34.7260  35.7150
    37.1448  37.5994  39.2218  42.3163  42.9902  44.0260  44.2478  44.9303
    46.2343  46.6969  47.7200  47.9981  48.7062  48.7930  49.6876  50.4638
    50.7013  51.2542

     occupation numbers 
     1.0000   1.0000   1.0000   1.0000   1.0000   1.0000   1.0000   1.0000
     1.0000   1.0000   1.0000   1.0000   1.0000   1.0000   1.0000   1.0000
     1.0000   0.7973   0.1984  -0.0000  -0.0000  -0.0000  -0.0000  -0.0000
    -0.0000  -0.0000  -0.0000  -0.0000  -0.0000  -0.0000  -0.0000  -0.0000
    -0.0000  -0.0000  -0.0000  -0.0000  -0.0000  -0.0000  -0.0000  -0.0000
    -0.0000  -0.0000  -0.0000  -0.0000  -0.0000  -0.0000  -0.0000  -0.0000
    -0.0000  -0.0000  -0.0000  -0.0000  -0.0000  -0.0000  -0.0000  -0.0000
    -0.0000  -0.0000

          k = 0.0417 0.1250 0.2917 (  7916 PWs)   bands (ev):

   -74.5704 -36.4083 -36.3850 -36.3788 -11.8335 -11.1643 -10.6256   0.1558
     2.0108   2.4614   2.6938   3.2575   4.2272   4.2801   4.8608   5.0855
     6.9122   8.6125   8.7415  11.5557  13.8555  14.7219  18.8235  20.9980
    21.7176  22.7622  23.6219  24.5608  24.9259  26.1777  27.2787  29.5862
    30.7177  31.6328  32.3654  32.4825  33.2063  34.6296  35.1744  36.5014
    37.0537  38.5872  39.1948  42.1149  42.5412  43.7519  44.0284  45.4041
    46.0802  46.6250  47.0988  48.0459  48.3161  48.5460  49.0263  50.1915
    50.4522  50.8150

     occupation numbers 
     1.0000   1.0000   1.0000   1.0000   1.0000   1.0000   1.0000   1.0000
     1.0000   1.0000   1.0000   1.0000   1.0000   1.0000   1.0000   1.0000
     1.0000  -0.0005  -0.0000  -0.0000  -0.0000  -0.0000  -0.0000  -0.0000
    -0.0000  -0.0000  -0.0000  -0.0000  -0.0000  -0.0000  -0.0000  -0.0000
    -0.0000  -0.0000  -0.0000  -0.0000  -0.0000  -0.0000  -0.0000  -0.0000
    -0.0000  -0.0000  -0.0000  -0.0000  -0.0000  -0.0000  -0.0000  -0.0000
    -0.0000  -0.0000  -0.0000  -0.0000  -0.0000  -0.0000  -0.0000  -0.0000
    -0.0000  -0.0000

          k = 0.0417 0.1250 0.3750 (  7907 PWs)   bands (ev):

   -74.5705 -36.4183 -36.3843 -36.3781 -11.7808 -11.1571 -10.2871  -0.7789
     1.8399   2.2909   2.5562   3.1228   4.1005   4.2493   4.8714   5.0291
     6.9217   9.2801   9.3770  11.5650  14.3842  15.3929  18.1264  21.4505
    22.1892  22.7053  23.6101  24.0872  24.1601  26.8078  27.5205  28.9765
    30.9756  31.2447  31.8825  32.1480  32.6820  34.2548  35.4862  36.6647
    37.9326  40.0714  40.5463  41.4952  42.0902  43.0354  44.1938  45.0305
    45.8089  46.1914  46.9306  47.4899  47.9477  48.4684  48.7830  49.7425
    50.0747  50.1700

     occupation numbers 
     1.0000   1.0000   1.0000   1.0000   1.0000   1.0000   1.0000   1.0000
     1.0000   1.0000   1.0000   1.0000   1.0000   1.0000   1.0000   1.0000
     1.0000  -0.0000  -0.0000  -0.0000  -0.0000  -0.0000  -0.0000  -0.0000
    -0.0000  -0.0000  -0.0000  -0.0000  -0.0000  -0.0000  -0.0000  -0.0000
    -0.0000  -0.0000  -0.0000  -0.0000  -0.0000  -0.0000  -0.0000  -0.0000
    -0.0000  -0.0000  -0.0000  -0.0000  -0.0000  -0.0000  -0.0000  -0.0000
    -0.0000  -0.0000  -0.0000  -0.0000  -0.0000  -0.0000  -0.0000  -0.0000
    -0.0000  -0.0000

          k = 0.0417 0.1250 0.4583 (  7907 PWs)   bands (ev):

   -74.5705 -36.4241 -36.3839 -36.3777 -11.7569 -11.1531 -10.0593  -1.3205
     1.7271   2.1809   2.5135   3.0776   4.0179   4.2507   4.8779   4.9931
     6.9269   9.6585   9.7458  11.5673  14.6871  15.8479  17.6111  21.7757
    22.4056  22.7688  23.5183  23.7161  23.8176  26.5656  28.6288  29.1392
    30.7308  30.9705  31.1625  31.9073  32.4161  33.9314  34.7843  38.2241
    39.4132  40.3715  40.9824  41.1237  41.8447  42.8072  44.1672  44.8112
    45.0808  45.4716  47.0567  47.1737  47.4459  48.6670  48.9796  49.4141
    49.6909  50.0481

     occupation numbers 
     1.0000   1.0000   1.0000   1.0000   1.0000   1.0000   1.0000   1.0000
     1.0000   1.0000   1.0000   1.0000   1.0000   1.0000   1.0000   1.0000
     1.0000  -0.0000  -0.0000  -0.0000  -0.0000  -0.0000  -0.0000  -0.0000
    -0.0000  -0.0000  -0.0000  -0.0000  -0.0000  -0.0000  -0.0000  -0.0000
    -0.0000  -0.0000  -0.0000  -0.0000  -0.0000  -0.0000  -0.0000  -0.0000
    -0.0000  -0.0000  -0.0000  -0.0000  -0.0000  -0.0000  -0.0000  -0.0000
    -0.0000  -0.0000  -0.0000  -0.0000  -0.0000  -0.0000  -0.0000  -0.0000
    -0.0000  -0.0000

          k = 0.0417 0.2083 0.2083 (  7917 PWs)   bands (ev):

   -74.5704 -36.3960 -36.3958 -36.3789 -11.8048 -11.0386 -10.8669   1.1468
     1.3571   2.3481   2.5646   3.3166   3.9613   4.5329   4.6403   5.3184
     7.6770   7.8801   8.4450  11.8720  13.8873  14.4008  19.7428  19.9301
    21.5280  22.6596  24.0236  24.5256  24.9747  25.6425  28.3575  29.6620
    31.1700  31.4275  32.4227  32.6366  32.7604  33.9618  35.2640  35.8949
    37.8334  38.8730  39.1508  41.0136  42.6196  43.5830  44.1846  45.3511
    46.4439  46.4673  47.4816  48.0480  48.4452  48.5892  49.0344  50.4064
    51.0990  51.7207

     occupation numbers 
     1.0000   1.0000   1.0000   1.0000   1.0000   1.0000   1.0000   1.0000
     1.0000   1.0000   1.0000   1.0000   1.0000   1.0000   1.0000   1.0000
     0.9823   0.5210  -0.0068  -0.0000  -0.0000  -0.0000  -0.0000  -0.0000
    -0.0000  -0.0000  -0.0000  -0.0000  -0.0000  -0.0000  -0.0000  -0.0000
    -0.0000  -0.0000  -0.0000  -0.0000  -0.0000  -0.0000  -0.0000  -0.0000
    -0.0000  -0.0000  -0.0000  -0.0000  -0.0000  -0.0000  -0.0000  -0.0000
    -0.0000  -0.0000  -0.0000  -0.0000  -0.0000  -0.0000  -0.0000  -0.0000
    -0.0000  -0.0000

          k = 0.0417 0.2083 0.2917 (  7901 PWs)   bands (ev):

   -74.5705 -36.4075 -36.3951 -36.3781 -11.7164 -10.9751 -10.6090   0.1519
     1.2700   1.8640   2.4592   3.0539   3.8854   4.3846   4.6314   5.4049
     7.7744   8.6225   9.0407  12.0083  14.6376  15.0170  19.0724  20.2204
    21.8856  22.4532  23.8475  24.3247  24.5563  26.1364  28.0770  29.8209
    30.5832  31.4072  31.9902  32.2819  32.7646  34.3701  35.2185  36.4761
    37.6262  39.1942  40.0952  41.3456  42.0277  43.2763  43.9554  45.5726
    45.8991  46.4668  46.7224  47.3648  47.8646  48.6631  49.0697  49.6720
    50.2063  51.4643

     occupation numbers 
     1.0000   1.0000   1.0000   1.0000   1.0000   1.0000   1.0000   1.0000
     1.0000   1.0000   1.0000   1.0000   1.0000   1.0000   1.0000   1.0000
     0.8187  -0.0004  -0.0000  -0.0000  -0.0000  -0.0000  -0.0000  -0.0000
    -0.0000  -0.0000  -0.0000  -0.0000  -0.0000  -0.0000  -0.0000  -0.0000
    -0.0000  -0.0000  -0.0000  -0.0000  -0.0000  -0.0000  -0.0000  -0.0000
    -0.0000  -0.0000  -0.0000  -0.0000  -0.0000  -0.0000  -0.0000  -0.0000
    -0.0000  -0.0000  -0.0000  -0.0000  -0.0000  -0.0000  -0.0000  -0.0000
    -0.0000  -0.0000

          k = 0.0417 0.2083 0.3750 (  7908 PWs)   bands (ev):

   -74.5705 -36.4176 -36.3944 -36.3774 -11.6664 -10.9572 -10.2766  -0.7778
     1.2467   1.5653   2.3028   2.9280   3.8668   4.2500   4.6487   5.4221
     7.7869   9.2853   9.5994  12.0631  15.1525  15.6644  18.3759  20.6078
    21.9697  22.5569  23.6518  23.7330  24.2697  27.2225  27.7059  30.0620
    30.1701  31.1501  31.2105  32.0324  32.7713  34.6970  35.8064  36.1079
    37.7142  40.3917  40.7542  41.4647  42.1881  42.8249  43.4911  45.0223
    45.3182  45.9582  46.4390  47.1669  47.4598  48.5889  48.9709  49.0493
    50.0101  51.0447

     occupation numbers 
     1.0000   1.0000   1.0000   1.0000   1.0000   1.0000   1.0000   1.0000
     1.0000   1.0000   1.0000   1.0000   1.0000   1.0000   1.0000   1.0000
     0.7888  -0.0000  -0.0000  -0.0000  -0.0000  -0.0000  -0.0000  -0.0000
    -0.0000  -0.0000  -0.0000  -0.0000  -0.0000  -0.0000  -0.0000  -0.0000
    -0.0000  -0.0000  -0.0000  -0.0000  -0.0000  -0.0000  -0.0000  -0.0000
    -0.0000  -0.0000  -0.0000  -0.0000  -0.0000  -0.0000  -0.0000  -0.0000
    -0.0000  -0.0000  -0.0000  -0.0000  -0.0000  -0.0000  -0.0000  -0.0000
    -0.0000  -0.0000

          k = 0.0417 0.2083 0.4583 (  7904 PWs)   bands (ev):

   -74.5706 -36.4234 -36.3940 -36.3770 -11.6445 -10.9501 -10.0486  -1.3195
     1.2094   1.4428   2.1943   2.8890   3.8630   4.1773   4.6581   5.4180
     7.7924   9.6625   9.9393  12.0832  15.5032  16.0238  17.8915  20.8799
    21.9491  22.5847  23.3783  23.7227  23.9793  27.3307  28.6330  29.7969
    30.1896  30.3765  31.0563  31.8595  32.8764  34.1862  35.2831  37.3682
    38.9140  39.7051  41.2088  41.4339  42.3779  42.7333  43.3376  44.3722
    45.1210  45.5425  46.3896  47.2314  47.3417  48.4514  48.5894  48.6712
    50.1942  50.9185

     occupation numbers 
     1.0000   1.0000   1.0000   1.0000   1.0000   1.0000   1.0000   1.0000
     1.0000   1.0000   1.0000   1.0000   1.0000   1.0000   1.0000   1.0000
     0.7751  -0.0000  -0.0000  -0.0000  -0.0000  -0.0000  -0.0000  -0.0000
    -0.0000  -0.0000  -0.0000  -0.0000  -0.0000  -0.0000  -0.0000  -0.0000
    -0.0000  -0.0000  -0.0000  -0.0000  -0.0000  -0.0000  -0.0000  -0.0000
    -0.0000  -0.0000  -0.0000  -0.0000  -0.0000  -0.0000  -0.0000  -0.0000
    -0.0000  -0.0000  -0.0000  -0.0000  -0.0000  -0.0000  -0.0000  -0.0000
    -0.0000  -0.0000

          k = 0.0417 0.2917 0.2917 (  7900 PWs)   bands (ev):

   -74.5705 -36.4068 -36.4066 -36.3773 -11.6335 -10.7142 -10.5405   0.0007
     0.3874   1.3164   2.4229   2.7902   3.7443   4.4224   4.4687   5.6485
     8.5345   8.7002   9.4850  12.2367  15.3589  15.6147  19.3379  19.4890
    21.7943  22.4479  23.6013  23.8309  24.7913  26.3013  28.6354  29.2263
    30.6815  31.0995  31.9664  31.9810  32.9819  34.1812  35.9745  36.1321
    37.5465  39.6228  40.4272  41.6533  41.8092  42.9652  43.9477  45.0174
    45.5909  45.9523  46.1951  46.7619  47.2189  48.1899  48.8843  49.1828
    49.9620  51.8642

     occupation numbers 
     1.0000   1.0000   1.0000   1.0000   1.0000   1.0000   1.0000   1.0000
     1.0000   1.0000   1.0000   1.0000   1.0000   1.0000   1.0000   1.0000
    -0.0019  -0.0001  -0.0000  -0.0000  -0.0000  -0.0000  -0.0000  -0.0000
    -0.0000  -0.0000  -0.0000  -0.0000  -0.0000  -0.0000  -0.0000  -0.0000
    -0.0000  -0.0000  -0.0000  -0.0000  -0.0000  -0.0000  -0.0000  -0.0000
    -0.0000  -0.0000  -0.0000  -0.0000  -0.0000  -0.0000  -0.0000  -0.0000
    -0.0000  -0.0000  -0.0000  -0.0000  -0.0000  -0.0000  -0.0000  -0.0000
    -0.0000  -0.0000

          k = 0.0417 0.2917 0.3750 (  7917 PWs)   bands (ev):

   -74.5706 -36.4167 -36.4060 -36.3766 -11.5893 -10.6332 -10.2627  -0.7899
     0.2619   0.9705   2.3125   2.6483   3.6969   4.3170   4.4757   5.7767
     8.6165   9.2920   9.9462  12.3398  15.8111  16.3032  18.6966  19.7661
    21.5732  22.4758  23.3718  23.6161  24.5807  26.9623  28.4120  29.4569
    30.1054  30.9902  31.6832  31.9646  33.1735  34.9294  35.7334  36.4334
    37.4095  39.6026  41.2691  41.4315  41.7713  43.2158  43.5308  44.2153
    44.8082  45.0536  46.2011  46.5680  47.2142  47.3975  48.5030  49.0410
    50.4934  51.1807

     occupation numbers 
     1.0000   1.0000   1.0000   1.0000   1.0000   1.0000   1.0000   1.0000
     1.0000   1.0000   1.0000   1.0000   1.0000   1.0000   1.0000   1.0000
    -0.0005  -0.0000  -0.0000  -0.0000  -0.0000  -0.0000  -0.0000  -0.0000
    -0.0000  -0.0000  -0.0000  -0.0000  -0.0000  -0.0000  -0.0000  -0.0000
    -0.0000  -0.0000  -0.0000  -0.0000  -0.0000  -0.0000  -0.0000  -0.0000
    -0.0000  -0.0000  -0.0000  -0.0000  -0.0000  -0.0000  -0.0000  -0.0000
    -0.0000  -0.0000  -0.0000  -0.0000  -0.0000  -0.0000  -0.0000  -0.0000
    -0.0000  -0.0000

          k = 0.0417 0.2917 0.4583 (  7918 PWs)   bands (ev):

   -74.5706 -36.4225 -36.4056 -36.3762 -11.5704 -10.6198 -10.0362  -1.3235
     0.2699   0.7889   2.2100   2.6147   3.6821   4.2504   4.4883   5.8255
     8.6235   9.6670  10.2434  12.3803  16.2017  16.5863  18.2343  20.0062
    21.4694  22.3013  23.1820  23.8538  24.2130  27.5441  28.2879  29.6722
    29.7564  30.9018  31.3987  31.8862  33.4318  34.6225  35.9769  36.7013
    38.4809  39.1729  40.8302  41.0902  42.1923  42.9201  43.4396  43.8845
    44.1929  44.9312  46.2396  46.6042  46.8248  47.5362  48.2860  48.8140
    50.9833  51.1446

     occupation numbers 
     1.0000   1.0000   1.0000   1.0000   1.0000   1.0000   1.0000   1.0000
     1.0000   1.0000   1.0000   1.0000   1.0000   1.0000   1.0000   1.0000
    -0.0004  -0.0000  -0.0000  -0.0000  -0.0000  -0.0000  -0.0000  -0.0000
    -0.0000  -0.0000  -0.0000  -0.0000  -0.0000  -0.0000  -0.0000  -0.0000
    -0.0000  -0.0000  -0.0000  -0.0000  -0.0000  -0.0000  -0.0000  -0.0000
    -0.0000  -0.0000  -0.0000  -0.0000  -0.0000  -0.0000  -0.0000  -0.0000
    -0.0000  -0.0000  -0.0000  -0.0000  -0.0000  -0.0000  -0.0000  -0.0000
    -0.0000  -0.0000

          k = 0.0417 0.3750 0.3750 (  7913 PWs)   bands (ev):

   -74.5707 -36.4161 -36.4160 -36.3760 -11.5494 -10.3099 -10.2202  -0.9409
    -0.5290   0.6422   2.2983   2.4268   3.6337   4.3465   4.3585   5.9998
     9.2498   9.3317  10.3291  12.4713  16.1900  17.0675  18.9981  19.0574
    21.2591  22.2309  23.1240  23.7751  24.6286  26.8179  28.8634  29.0450
    29.7968  30.7961  31.9514  32.5007  33.5826  34.9601  35.9733  36.8014
    37.5096  39.2265  40.5984  40.9804  42.3530  42.7052  43.5922  43.6000
    44.1218  44.3247  45.2230  46.0190  46.8285  47.5552  48.3752  49.1834
    51.1686  51.2730

     occupation numbers 
     1.0000   1.0000   1.0000   1.0000   1.0000   1.0000   1.0000   1.0000
     1.0000   1.0000   1.0000   1.0000   1.0000   1.0000   1.0000   1.0000
    -0.0000  -0.0000  -0.0000  -0.0000  -0.0000  -0.0000  -0.0000  -0.0000
    -0.0000  -0.0000  -0.0000  -0.0000  -0.0000  -0.0000  -0.0000  -0.0000
    -0.0000  -0.0000  -0.0000  -0.0000  -0.0000  -0.0000  -0.0000  -0.0000
    -0.0000  -0.0000  -0.0000  -0.0000  -0.0000  -0.0000  -0.0000  -0.0000
    -0.0000  -0.0000  -0.0000  -0.0000  -0.0000  -0.0000  -0.0000  -0.0000
    -0.0000  -0.0000

          k = 0.0417 0.3750 0.4583 (  7904 PWs)   bands (ev):

   -74.5707 -36.4218 -36.4156 -36.3756 -11.5325 -10.2610 -10.0253  -1.3524
    -0.6631   0.4761   2.2236   2.3722   3.6125   4.2879   4.3684   6.0990
     9.2923   9.6708  10.5870  12.5243  16.4714  17.4580  18.5591  19.2545
    21.1003  22.0235  22.9482  24.0766  24.3944  26.8353  28.7261  29.2117
    29.7673  30.6489  32.0787  32.6363  33.7072  35.0804  36.3107  36.9546
    38.3371  39.1737  39.8266  40.7908  41.4134  42.2664  43.3747  43.5188
    44.0482  44.1071  44.6202  45.4675  47.0676  47.6559  48.6817  49.0965
    51.4752  51.9746

     occupation numbers 
     1.0000   1.0000   1.0000   1.0000   1.0000   1.0000   1.0000   1.0000
     1.0000   1.0000   1.0000   1.0000   1.0000   1.0000   1.0000   1.0000
    -0.0000  -0.0000  -0.0000  -0.0000  -0.0000  -0.0000  -0.0000  -0.0000
    -0.0000  -0.0000  -0.0000  -0.0000  -0.0000  -0.0000  -0.0000  -0.0000
    -0.0000  -0.0000  -0.0000  -0.0000  -0.0000  -0.0000  -0.0000  -0.0000
    -0.0000  -0.0000  -0.0000  -0.0000  -0.0000  -0.0000  -0.0000  -0.0000
    -0.0000  -0.0000  -0.0000  -0.0000  -0.0000  -0.0000  -0.0000  -0.0000
    -0.0000  -0.0000

          k = 0.0417 0.4583 0.4583 (  7892 PWs)   bands (ev):

   -74.5707 -36.4214 -36.4214 -36.3752 -11.5165 -10.0261 -10.0143  -1.4743
    -1.0949   0.3154   2.2275   2.2416   3.5887   4.3045   4.3055   6.2272
     9.6670   9.6777  10.8234  12.5827  16.6810  17.9405  18.7690  18.7722
    20.9049  21.8517  22.7833  24.2906  24.4202  26.4068  28.9717  28.9899
    29.9032  30.4780  32.3023  33.2964  33.5643  35.3549  36.6886  37.6203
    38.6122  39.1836  39.6401  39.9739  40.6731  42.0501  42.3071  42.6218
    43.5536  43.6056  44.9341  45.2055  47.1859  47.7045  49.0766  49.2135
    51.5907  51.7649

     occupation numbers 
     1.0000   1.0000   1.0000   1.0000   1.0000   1.0000   1.0000   1.0000
     1.0000   1.0000   1.0000   1.0000   1.0000   1.0000   1.0000   1.0000
    -0.0000  -0.0000  -0.0000  -0.0000  -0.0000  -0.0000  -0.0000  -0.0000
    -0.0000  -0.0000  -0.0000  -0.0000  -0.0000  -0.0000  -0.0000  -0.0000
    -0.0000  -0.0000  -0.0000  -0.0000  -0.0000  -0.0000  -0.0000  -0.0000
    -0.0000  -0.0000  -0.0000  -0.0000  -0.0000  -0.0000  -0.0000  -0.0000
    -0.0000  -0.0000  -0.0000  -0.0000  -0.0000  -0.0000  -0.0000  -0.0000
    -0.0000  -0.0000

          k = 0.1250 0.1250 0.1250 (  7956 PWs)   bands (ev):

   -74.5703 -36.3862 -36.3861 -36.3861 -11.9424 -11.1175 -11.1175   2.1732
     2.1732   2.1821   3.4935   3.4935   3.7276   4.9043   4.9043   5.1837
     7.1571   7.3796   7.3796  12.2088  12.2088  13.7800  20.3619  20.3619
    20.3768  23.1238  23.8602  23.8602  25.6931  27.3422  27.3422  29.4896
    31.7763  32.2116  32.9758  32.9758  33.0658  33.0658  35.4569  35.4569
    36.0709  37.2625  41.6361  41.6361  43.1071  43.7248  44.1707  44.1707
    46.6120  46.6120  48.0833  48.0833  48.6636  48.8793  50.2643  50.2643
    50.4712  51.5520

     occupation numbers 
     1.0000   1.0000   1.0000   1.0000   1.0000   1.0000   1.0000   1.0000
     1.0000   1.0000   1.0000   1.0000   1.0000   1.0000   1.0000   1.0000
     1.0005   1.0121   1.0121  -0.0000  -0.0000  -0.0000  -0.0000  -0.0000
    -0.0000  -0.0000  -0.0000  -0.0000  -0.0000  -0.0000  -0.0000  -0.0000
    -0.0000  -0.0000  -0.0000  -0.0000  -0.0000  -0.0000  -0.0000  -0.0000
    -0.0000  -0.0000  -0.0000  -0.0000  -0.0000  -0.0000  -0.0000  -0.0000
    -0.0000  -0.0000  -0.0000  -0.0000  -0.0000  -0.0000  -0.0000  -0.0000
    -0.0000  -0.0000

          k = 0.1250 0.1250 0.2083 (  7939 PWs)   bands (ev):

   -74.5704 -36.3962 -36.3855 -36.3854 -11.8211 -11.1114 -10.9247   1.2480
     2.1193   2.1379   2.9979   3.0090   3.6269   4.7593   4.9609   5.2206
     7.2835   7.9594   8.0459  12.2081  13.2501  14.2140  19.6817  20.6527
    20.6845  22.8755  23.8671  24.4035  25.5674  26.2913  27.3523  29.4887
    31.2263  31.7514  32.8983  32.9090  33.3094  34.0393  35.0261  35.0415
    36.7697  38.7005  39.7612  42.2809  43.0198  43.4814  43.9845  44.0097
    46.5729  46.6935  47.6149  48.0651  48.5174  48.5971  50.2870  50.2941
    50.9513  51.7421

     occupation numbers 
     1.0000   1.0000   1.0000   1.0000   1.0000   1.0000   1.0000   1.0000
     1.0000   1.0000   1.0000   1.0000   1.0000   1.0000   1.0000   1.0000
     1.0037   0.2830   0.0871  -0.0000  -0.0000  -0.0000  -0.0000  -0.0000
    -0.0000  -0.0000  -0.0000  -0.0000  -0.0000  -0.0000  -0.0000  -0.0000
    -0.0000  -0.0000  -0.0000  -0.0000  -0.0000  -0.0000  -0.0000  -0.0000
    -0.0000  -0.0000  -0.0000  -0.0000  -0.0000  -0.0000  -0.0000  -0.0000
    -0.0000  -0.0000  -0.0000  -0.0000  -0.0000  -0.0000  -0.0000  -0.0000
    -0.0000  -0.0000

          k = 0.1250 0.1250 0.2917 (  7921 PWs)   bands (ev):

   -74.5704 -36.4078 -36.3847 -36.3846 -11.7252 -11.1043 -10.6188   0.1577
     1.9771   2.0517   2.6659   2.6683   3.6303   4.5885   4.9848   5.1959
     7.3051   8.7079   8.7837  12.2060  14.0818  14.8589  18.9432  20.9979
    21.0900  22.6748  23.8607  24.4575  25.2801  26.2127  26.9343  29.9589
    30.4004  31.2883  32.5649  32.6925  33.3546  33.8130  35.2333  36.2043
    37.7004  38.1456  40.2717  42.2404  42.6408  43.4174  44.0688  44.2038
    45.9067  46.5124  46.7850  48.1241  48.2219  48.4273  49.6455  50.3105
    50.4338  51.3052

     occupation numbers 
     1.0000   1.0000   1.0000   1.0000   1.0000   1.0000   1.0000   1.0000
     1.0000   1.0000   1.0000   1.0000   1.0000   1.0000   1.0000   1.0000
     1.0050  -0.0001  -0.0000  -0.0000  -0.0000  -0.0000  -0.0000  -0.0000
    -0.0000  -0.0000  -0.0000  -0.0000  -0.0000  -0.0000  -0.0000  -0.0000
    -0.0000  -0.0000  -0.0000  -0.0000  -0.0000  -0.0000  -0.0000  -0.0000
    -0.0000  -0.0000  -0.0000  -0.0000  -0.0000  -0.0000  -0.0000  -0.0000
    -0.0000  -0.0000  -0.0000  -0.0000  -0.0000  -0.0000  -0.0000  -0.0000
    -0.0000  -0.0000

          k = 0.1250 0.1250 0.3750 (  7900 PWs)   bands (ev):

   -74.5705 -36.4179 -36.3840 -36.3839 -11.6694 -11.0981 -10.2813  -0.7770
     1.7920   1.9153   2.5024   2.5436   3.6386   4.4514   4.9996   5.1510
     7.3179   9.3451   9.4129  12.2021  14.6397  15.5036  18.2503  21.2492
    21.5149  22.6725  23.6560  24.1803  24.6268  26.4223  27.5844  29.7948
    30.3626  30.9138  32.0036  32.2101  33.0518  33.3992  36.1847  36.4136
    37.8486  39.6178  41.3829  41.6708  42.2854  42.8549  43.9543  44.4140
    45.1321  46.1094  46.8328  47.5859  47.9870  48.5407  49.2168  49.5004
    50.2911  50.3262

     occupation numbers 
     1.0000   1.0000   1.0000   1.0000   1.0000   1.0000   1.0000   1.0000
     1.0000   1.0000   1.0000   1.0000   1.0000   1.0000   1.0000   1.0000
     1.0059  -0.0000  -0.0000  -0.0000  -0.0000  -0.0000  -0.0000  -0.0000
    -0.0000  -0.0000  -0.0000  -0.0000  -0.0000  -0.0000  -0.0000  -0.0000
    -0.0000  -0.0000  -0.0000  -0.0000  -0.0000  -0.0000  -0.0000  -0.0000
    -0.0000  -0.0000  -0.0000  -0.0000  -0.0000  -0.0000  -0.0000  -0.0000
    -0.0000  -0.0000  -0.0000  -0.0000  -0.0000  -0.0000  -0.0000  -0.0000
    -0.0000  -0.0000

          k = 0.1250 0.1250 0.4583 (  7912 PWs)   bands (ev):

   -74.5705 -36.4237 -36.3836 -36.3835 -11.6448 -11.0945 -10.0532  -1.3192
     1.6737   1.8146   2.4497   2.5073   3.6441   4.3760   5.0084   5.1192
     7.3246   9.7146   9.7791  12.1984  14.9618  15.9175  17.7586  21.3356
    21.8739  22.7721  23.2057  23.9829  24.4968  26.1948  29.0360  29.5301
    30.4875  30.7007  30.8430  31.9860  32.9221  33.1732  35.4674  37.5313
    39.4468  40.6442  41.0919  41.3583  41.5914  42.7870  43.3783  44.7050
    45.0510  45.7764  46.9023  47.1459  47.5815  48.7143  48.9457  49.3438
    49.6104  50.1696

     occupation numbers 
     1.0000   1.0000   1.0000   1.0000   1.0000   1.0000   1.0000   1.0000
     1.0000   1.0000   1.0000   1.0000   1.0000   1.0000   1.0000   1.0000
     1.0064  -0.0000  -0.0000  -0.0000  -0.0000  -0.0000  -0.0000  -0.0000
    -0.0000  -0.0000  -0.0000  -0.0000  -0.0000  -0.0000  -0.0000  -0.0000
    -0.0000  -0.0000  -0.0000  -0.0000  -0.0000  -0.0000  -0.0000  -0.0000
    -0.0000  -0.0000  -0.0000  -0.0000  -0.0000  -0.0000  -0.0000  -0.0000
    -0.0000  -0.0000  -0.0000  -0.0000  -0.0000  -0.0000  -0.0000  -0.0000
    -0.0000  -0.0000

          k = 0.1250 0.2083 0.2083 (  7917 PWs)   bands (ev):

   -74.5704 -36.3956 -36.3954 -36.3847 -11.6822 -10.9904 -10.8629   1.1506
     1.3496   2.0870   2.3702   2.8432   3.2204   4.8719   4.9260   5.3577
     7.8615   8.1044   8.4643  12.7096  13.8861  14.5645  19.8986  19.9484
    20.8791  22.6298  24.1339  24.5095  25.6705  25.7422  27.5085  28.9193
    31.2994  31.5966  32.8137  32.8585  33.1748  34.0471  34.8318  35.2421
    37.0287  39.8218  40.0491  41.3183  42.7642  43.6277  43.8406  43.9061
    46.2857  46.6067  46.9980  47.9023  48.2331  48.3481  49.6074  50.7726
    51.0413  51.9279

     occupation numbers 
     1.0000   1.0000   1.0000   1.0000   1.0000   1.0000   1.0000   1.0000
     1.0000   1.0000   1.0000   1.0000   1.0000   1.0000   1.0000   1.0000
     0.5785   0.0101  -0.0053  -0.0000  -0.0000  -0.0000  -0.0000  -0.0000
    -0.0000  -0.0000  -0.0000  -0.0000  -0.0000  -0.0000  -0.0000  -0.0000
    -0.0000  -0.0000  -0.0000  -0.0000  -0.0000  -0.0000  -0.0000  -0.0000
    -0.0000  -0.0000  -0.0000  -0.0000  -0.0000  -0.0000  -0.0000  -0.0000
    -0.0000  -0.0000  -0.0000  -0.0000  -0.0000  -0.0000  -0.0000  -0.0000
    -0.0000  -0.0000

          k = 0.1250 0.2083 0.2917 (  7923 PWs)   bands (ev):

   -74.5705 -36.4071 -36.3947 -36.3839 -11.5781 -10.9437 -10.6029   0.1542
     1.2687   1.8427   2.0468   2.5600   3.1498   4.7846   4.9520   5.4351
     7.9779   8.7495   9.0563  12.8291  14.7026  15.1193  19.1569  20.2079
    21.1178  22.5136  24.0154  24.5466  24.9764  26.1931  27.4045  29.1400
    30.8500  31.1008  32.4392  32.7278  33.1494  34.0103  34.8816  36.1269
    38.2516  38.4661  41.0443  41.8788  42.2235  43.3268  43.7590  44.2210
    45.5322  46.1795  46.5568  47.2343  48.0749  48.1239  49.1903  50.0555
    50.9928  51.3962

     occupation numbers 
     1.0000   1.0000   1.0000   1.0000   1.0000   1.0000   1.0000   1.0000
     1.0000   1.0000   1.0000   1.0000   1.0000   1.0000   1.0000   1.0000
     0.2338  -0.0000  -0.0000  -0.0000  -0.0000  -0.0000  -0.0000  -0.0000
    -0.0000  -0.0000  -0.0000  -0.0000  -0.0000  -0.0000  -0.0000  -0.0000
    -0.0000  -0.0000  -0.0000  -0.0000  -0.0000  -0.0000  -0.0000  -0.0000
    -0.0000  -0.0000  -0.0000  -0.0000  -0.0000  -0.0000  -0.0000  -0.0000
    -0.0000  -0.0000  -0.0000  -0.0000  -0.0000  -0.0000  -0.0000  -0.0000
    -0.0000  -0.0000

          k = 0.1250 0.2083 0.3750 (  7907 PWs)   bands (ev):

   -74.5706 -36.4172 -36.3940 -36.3832 -11.5221 -10.9304 -10.2709  -0.7759
     1.2497   1.5551   1.8860   2.4205   3.1434   4.6838   4.9740   5.4519
     7.9975   9.3745   9.6134  12.8608  15.2522  15.7302  18.4728  20.4291
    21.3672  22.5994  23.4946  24.2568  24.7101  26.5475  27.7747  29.5803
    30.4522  30.6104  31.7576  32.4994  33.0463  33.7272  35.6638  36.8902
    37.7152  39.8706  41.3386  41.7428  42.1347  42.8505  43.5335  44.1859
    44.9048  45.8940  46.3812  46.9098  47.8312  48.0343  49.0593  49.1750
    50.4486  51.0442

     occupation numbers 
     1.0000   1.0000   1.0000   1.0000   1.0000   1.0000   1.0000   1.0000
     1.0000   1.0000   1.0000   1.0000   1.0000   1.0000   1.0000   1.0000
     0.1854  -0.0000  -0.0000  -0.0000  -0.0000  -0.0000  -0.0000  -0.0000
    -0.0000  -0.0000  -0.0000  -0.0000  -0.0000  -0.0000  -0.0000  -0.0000
    -0.0000  -0.0000  -0.0000  -0.0000  -0.0000  -0.0000  -0.0000  -0.0000
    -0.0000  -0.0000  -0.0000  -0.0000  -0.0000  -0.0000  -0.0000  -0.0000
    -0.0000  -0.0000  -0.0000  -0.0000  -0.0000  -0.0000  -0.0000  -0.0000
    -0.0000  -0.0000

          k = 0.1250 0.2083 0.4583 (  7911 PWs)   bands (ev):

   -74.5706 -36.4229 -36.3936 -36.3828 -11.4984 -10.9247 -10.0427  -1.3182
     1.2155   1.4333   1.7746   2.3802   3.1446   4.6249   4.9843   5.4483
     8.0057   9.7402   9.9524  12.8690  15.6159  16.0500  18.0229  20.5159
    21.6623  22.6193  23.0083  24.0812  24.6583  26.4532  28.8650  29.8131
    30.0845  30.3807  30.9967  32.3513  32.9520  33.4912  35.9855  36.8536
    39.0896  40.6439  40.9379  41.3780  41.6742  42.5980  43.3393  44.1030
    44.9945  45.6895  46.2491  46.9174  47.7057  47.9449  48.7013  48.9889
    50.1986  50.7270

     occupation numbers 
     1.0000   1.0000   1.0000   1.0000   1.0000   1.0000   1.0000   1.0000
     1.0000   1.0000   1.0000   1.0000   1.0000   1.0000   1.0000   1.0000
     0.1666  -0.0000  -0.0000  -0.0000  -0.0000  -0.0000  -0.0000  -0.0000
    -0.0000  -0.0000  -0.0000  -0.0000  -0.0000  -0.0000  -0.0000  -0.0000
    -0.0000  -0.0000  -0.0000  -0.0000  -0.0000  -0.0000  -0.0000  -0.0000
    -0.0000  -0.0000  -0.0000  -0.0000  -0.0000  -0.0000  -0.0000  -0.0000
    -0.0000  -0.0000  -0.0000  -0.0000  -0.0000  -0.0000  -0.0000  -0.0000
    -0.0000  -0.0000

          k = 0.1250 0.2917 0.2917 (  7915 PWs)   bands (ev):

   -74.5706 -36.4064 -36.4062 -36.3831 -11.4768 -10.6988 -10.5359   0.0055
     0.3840   1.3225   1.9970   2.3426   2.9604   4.8476   4.8687   5.6594
     8.6440   8.8442   9.4964  13.1067  15.4458  15.6131  19.3561  19.4801
    21.1450  22.4986  23.7283  24.4581  24.6652  26.4613  27.9703  28.7099
    30.4859  30.8249  32.4738  32.6028  33.4787  33.9144  35.3848  35.8485
    38.4838  39.4748  40.2616  41.9100  42.3416  43.2017  43.7640  44.2601
    44.7322  45.8414  45.9820  46.5754  47.5121  47.7324  49.0370  49.9136
    50.1228  50.9985

     occupation numbers 
     1.0000   1.0000   1.0000   1.0000   1.0000   1.0000   1.0000   1.0000
     1.0000   1.0000   1.0000   1.0000   1.0000   1.0000   1.0000   1.0000
    -0.0003  -0.0000  -0.0000  -0.0000  -0.0000  -0.0000  -0.0000  -0.0000
    -0.0000  -0.0000  -0.0000  -0.0000  -0.0000  -0.0000  -0.0000  -0.0000
    -0.0000  -0.0000  -0.0000  -0.0000  -0.0000  -0.0000  -0.0000  -0.0000
    -0.0000  -0.0000  -0.0000  -0.0000  -0.0000  -0.0000  -0.0000  -0.0000
    -0.0000  -0.0000  -0.0000  -0.0000  -0.0000  -0.0000  -0.0000  -0.0000
    -0.0000  -0.0000

          k = 0.1250 0.2917 0.3750 (  7911 PWs)   bands (ev):

   -74.5706 -36.4163 -36.4056 -36.3825 -11.4270 -10.6234 -10.2572  -0.7877
     0.2609   0.9800   1.8911   2.2037   2.9119   4.7695   4.8889   5.7839
     8.7438   9.3884   9.9556  13.2102  15.8400  16.3111  18.7452  19.6622
    21.2089  22.5275  23.1819  24.2271  24.5643  26.8364  28.1394  28.9985
    30.1811  30.3111  32.2889  32.6533  33.4095  34.2526  35.3110  36.8800
    37.8987  40.2366  40.7972  41.4910  41.6310  43.0713  43.6441  44.0202
    44.2310  45.0941  45.8956  46.6114  46.9467  47.5163  48.6742  49.4330
    50.0246  50.7710

     occupation numbers 
     1.0000   1.0000   1.0000   1.0000   1.0000   1.0000   1.0000   1.0000
     1.0000   1.0000   1.0000   1.0000   1.0000   1.0000   1.0000   1.0000
    -0.0000  -0.0000  -0.0000  -0.0000  -0.0000  -0.0000  -0.0000  -0.0000
    -0.0000  -0.0000  -0.0000  -0.0000  -0.0000  -0.0000  -0.0000  -0.0000
    -0.0000  -0.0000  -0.0000  -0.0000  -0.0000  -0.0000  -0.0000  -0.0000
    -0.0000  -0.0000  -0.0000  -0.0000  -0.0000  -0.0000  -0.0000  -0.0000
    -0.0000  -0.0000  -0.0000  -0.0000  -0.0000  -0.0000  -0.0000  -0.0000
    -0.0000  -0.0000

          k = 0.1250 0.2917 0.4583 (  7914 PWs)   bands (ev):

   -74.5707 -36.4221 -36.4052 -36.3821 -11.4069 -10.6110 -10.0304  -1.3221
     0.2686   0.8000   1.7890   2.1711   2.8999   4.7177   4.9016   5.8322
     8.7549   9.7508  10.2517  13.2459  16.1632  16.6099  18.3469  19.7856
    21.3948  22.2389  23.0011  24.1163  24.4665  26.9339  28.5535  29.2196
    29.9556  30.0691  32.0315  32.6795  33.3229  34.0784  35.9225  36.9880
    38.6691  40.0698  40.1344  41.3692  42.1674  42.6217  43.3981  43.6944
    43.8837  44.9441  45.9710  46.4673  46.9716  47.4130  48.3425  48.8385
    50.0587  51.1378

     occupation numbers 
     1.0000   1.0000   1.0000   1.0000   1.0000   1.0000   1.0000   1.0000
     1.0000   1.0000   1.0000   1.0000   1.0000   1.0000   1.0000   1.0000
    -0.0000  -0.0000  -0.0000  -0.0000  -0.0000  -0.0000  -0.0000  -0.0000
    -0.0000  -0.0000  -0.0000  -0.0000  -0.0000  -0.0000  -0.0000  -0.0000
    -0.0000  -0.0000  -0.0000  -0.0000  -0.0000  -0.0000  -0.0000  -0.0000
    -0.0000  -0.0000  -0.0000  -0.0000  -0.0000  -0.0000  -0.0000  -0.0000
    -0.0000  -0.0000  -0.0000  -0.0000  -0.0000  -0.0000  -0.0000  -0.0000
    -0.0000  -0.0000

          k = 0.1250 0.3750 0.3750 (  7926 PWs)   bands (ev):

   -74.5707 -36.4156 -36.4156 -36.3818 -11.3826 -10.3034 -10.2150  -0.9378
    -0.5305   0.6541   1.8788   1.9985   2.8377   4.8036   4.8076   6.0029
     9.3384   9.4372  10.3360  13.3579  16.1346  17.0672  18.9273  19.1296
    21.1034  22.2241  23.0130  24.1546  24.4245  26.9705  28.4042  28.8015
    29.9146  30.0531  32.7963  32.8763  34.0654  34.1846  35.2751  37.1796
    38.3843  39.4956  40.5764  41.1869  41.7353  42.3198  43.5231  43.9366
    43.9990  44.3730  45.4047  45.7965  46.5415  47.2265  48.2830  49.5709
    50.0048  51.4881

     occupation numbers 
     1.0000   1.0000   1.0000   1.0000   1.0000   1.0000   1.0000   1.0000
     1.0000   1.0000   1.0000   1.0000   1.0000   1.0000   1.0000   1.0000
    -0.0000  -0.0000  -0.0000  -0.0000  -0.0000  -0.0000  -0.0000  -0.0000
    -0.0000  -0.0000  -0.0000  -0.0000  -0.0000  -0.0000  -0.0000  -0.0000
    -0.0000  -0.0000  -0.0000  -0.0000  -0.0000  -0.0000  -0.0000  -0.0000
    -0.0000  -0.0000  -0.0000  -0.0000  -0.0000  -0.0000  -0.0000  -0.0000
    -0.0000  -0.0000  -0.0000  -0.0000  -0.0000  -0.0000  -0.0000  -0.0000
[...]
    -0.0000  -0.0000  -0.0000  -0.0000  -0.0000  -0.0000  -0.0000  -0.0000
    -0.0000  -0.0000  -0.0000  -0.0000  -0.0000  -0.0000  -0.0000  -0.0000
    -0.0000  -0.0000  -0.0000  -0.0000  -0.0000  -0.0000  -0.0000  -0.0000
    -0.0000  -0.0000

          k = 0.2933 0.2933 0.3772 (  7772 PWs)   bands (ev):

   -74.2766 -36.1473 -36.1358 -36.1356 -10.6186 -10.3131 -10.0198  -0.6305
     0.2266   0.7453   1.1548   1.2081   1.5485   5.8121   5.8598   6.1054
     9.8094  10.2445  10.3937  16.1053  16.1093  17.0272  19.0927  20.0650
    20.9112  23.0616  23.2919  23.9947  25.0552  27.2366  28.0088  29.3373
    29.9873  31.6225  32.0299  33.2096  34.3447  34.6669  37.0234  38.9632
    39.4046  39.8406  41.3756  41.8092  42.3798  42.5909  43.9285  44.1187
    44.4561  44.5490  45.5620  45.6355  46.7474  47.4452  49.3735  50.0529
    50.7787  51.5663

     occupation numbers 
     1.0000   1.0000   1.0000   1.0000   1.0000   1.0000   1.0000   1.0000
     1.0000   1.0000   1.0000   1.0000   1.0000   1.0000   1.0000   1.0000
    -0.0000  -0.0000  -0.0000  -0.0000  -0.0000  -0.0000  -0.0000  -0.0000
    -0.0000  -0.0000  -0.0000  -0.0000  -0.0000  -0.0000  -0.0000  -0.0000
    -0.0000  -0.0000  -0.0000  -0.0000  -0.0000  -0.0000  -0.0000  -0.0000
    -0.0000  -0.0000  -0.0000  -0.0000  -0.0000  -0.0000  -0.0000  -0.0000
    -0.0000  -0.0000  -0.0000  -0.0000  -0.0000  -0.0000  -0.0000  -0.0000
    -0.0000  -0.0000

          k = 0.2933 0.2933 0.4610 (  7781 PWs)   bands (ev):

   -74.2767 -36.1535 -36.1353 -36.1351 -10.5873 -10.3082  -9.7796  -1.1778
     0.2401   0.7683   0.9438   1.0367   1.5583   5.8318   5.9011   6.1577
     9.8361  10.5349  10.6953  16.0990  16.1571  17.4655  19.1451  19.7781
    21.4720  22.1975  23.4083  24.1433  24.5429  27.2474  28.4334  29.1276
    30.2879  31.4906  31.7837  33.8732  34.2634  35.0922  36.3985  38.9442
    39.4487  40.0371  41.4827  42.0228  42.3445  42.6761  43.5328  43.9379
    44.1524  44.4241  45.3918  45.5514  46.4208  47.9777  48.1215  49.2972
    50.0976  51.3053

     occupation numbers 
     1.0000   1.0000   1.0000   1.0000   1.0000   1.0000   1.0000   1.0000
     1.0000   1.0000   1.0000   1.0000   1.0000   1.0000   1.0000   1.0000
    -0.0000  -0.0000  -0.0000  -0.0000  -0.0000  -0.0000  -0.0000  -0.0000
    -0.0000  -0.0000  -0.0000  -0.0000  -0.0000  -0.0000  -0.0000  -0.0000
    -0.0000  -0.0000  -0.0000  -0.0000  -0.0000  -0.0000  -0.0000  -0.0000
    -0.0000  -0.0000  -0.0000  -0.0000  -0.0000  -0.0000  -0.0000  -0.0000
    -0.0000  -0.0000  -0.0000  -0.0000  -0.0000  -0.0000  -0.0000  -0.0000
    -0.0000  -0.0000

          k = 0.2933 0.3772 0.3772 (  7772 PWs)   bands (ev):

   -74.2767 -36.1465 -36.1464 -36.1349 -10.4856 -10.0562  -9.9791  -0.7722
    -0.4222   0.6036   0.8401   1.1942   1.2007   5.9479   5.9719   6.2598
    10.2387  10.3664  10.7222  16.0421  16.5332  17.5962  19.1762  20.0662
    20.8806  22.5994  23.4444  23.5611  24.5164  27.6405  27.9574  28.9325
    30.3179  31.6505  32.7310  32.9569  34.5330  34.7906  37.7411  38.3681
    39.7825  40.4618  40.9275  41.3272  42.1981  42.8451  43.0870  44.2138
    44.2958  44.4399  44.9445  45.3479  46.2269  47.0228  48.3264  49.8933
    50.0306  51.2471

     occupation numbers 
     1.0000   1.0000   1.0000   1.0000   1.0000   1.0000   1.0000   1.0000
     1.0000   1.0000   1.0000   1.0000   1.0000   1.0000   1.0000   1.0000
    -0.0000  -0.0000  -0.0000  -0.0000  -0.0000  -0.0000  -0.0000  -0.0000
    -0.0000  -0.0000  -0.0000  -0.0000  -0.0000  -0.0000  -0.0000  -0.0000
    -0.0000  -0.0000  -0.0000  -0.0000  -0.0000  -0.0000  -0.0000  -0.0000
    -0.0000  -0.0000  -0.0000  -0.0000  -0.0000  -0.0000  -0.0000  -0.0000
    -0.0000  -0.0000  -0.0000  -0.0000  -0.0000  -0.0000  -0.0000  -0.0000
    -0.0000  -0.0000

          k = 0.2933 0.3772 0.4610 (  7793 PWs)   bands (ev):

   -74.2767 -36.1527 -36.1460 -36.1345 -10.4594 -10.0146  -9.7685  -1.2058
    -0.5330   0.6082   0.6675   1.0128   1.2075   5.9780   6.0155   6.3545
    10.3130  10.6113  10.9821  15.9890  16.6002  18.0370  19.3911  19.8024
    21.2527  21.9022  23.4121  23.6770  24.0906  27.7149  28.1608  28.7165
    30.1942  32.0415  32.5362  33.9709  34.5274  35.0063  37.0159  38.2112
    39.5895  40.4885  40.8034  41.6244  42.5045  43.0168  43.6422  43.8663
    43.9461  44.4471  44.5770  45.0772  45.7039  46.4381  47.6962  49.5457
    49.8086  51.1561

     occupation numbers 
     1.0000   1.0000   1.0000   1.0000   1.0000   1.0000   1.0000   1.0000
     1.0000   1.0000   1.0000   1.0000   1.0000   1.0000   1.0000   1.0000
    -0.0000  -0.0000  -0.0000  -0.0000  -0.0000  -0.0000  -0.0000  -0.0000
    -0.0000  -0.0000  -0.0000  -0.0000  -0.0000  -0.0000  -0.0000  -0.0000
    -0.0000  -0.0000  -0.0000  -0.0000  -0.0000  -0.0000  -0.0000  -0.0000
    -0.0000  -0.0000  -0.0000  -0.0000  -0.0000  -0.0000  -0.0000  -0.0000
    -0.0000  -0.0000  -0.0000  -0.0000  -0.0000  -0.0000  -0.0000  -0.0000
    -0.0000  -0.0000

          k = 0.2933 0.4610 0.4610 (  7775 PWs)   bands (ev):

   -74.2768 -36.1523 -36.1522 -36.1340 -10.4364  -9.7692  -9.7574  -1.3311
    -0.9604   0.5022   0.6115   1.0217   1.0240   6.0323   6.0359   6.4796
    10.6145  10.6313  11.2178  15.8864  16.7223  18.4935  19.6247  19.7933
    21.1244  21.6003  23.3316  23.3900  23.9615  28.0097  28.0733  28.4947
    29.8471  32.6223  33.3594  34.2316  34.5281  35.2315  37.3124  37.4875
    37.9527  41.1430  41.4509  42.1297  42.6441  42.8192  43.3851  43.9149
    43.9514  44.0806  44.4463  44.8388  45.1711  45.6229  47.0138  49.2869
    49.7890  51.3170

     occupation numbers 
     1.0000   1.0000   1.0000   1.0000   1.0000   1.0000   1.0000   1.0000
     1.0000   1.0000   1.0000   1.0000   1.0000   1.0000   1.0000   1.0000
    -0.0000  -0.0000  -0.0000  -0.0000  -0.0000  -0.0000  -0.0000  -0.0000
    -0.0000  -0.0000  -0.0000  -0.0000  -0.0000  -0.0000  -0.0000  -0.0000
    -0.0000  -0.0000  -0.0000  -0.0000  -0.0000  -0.0000  -0.0000  -0.0000
    -0.0000  -0.0000  -0.0000  -0.0000  -0.0000  -0.0000  -0.0000  -0.0000
    -0.0000  -0.0000  -0.0000  -0.0000  -0.0000  -0.0000  -0.0000  -0.0000
    -0.0000  -0.0000

          k = 0.3772 0.3772 0.3772 (  7784 PWs)   bands (ev):

   -74.2768 -36.1458 -36.1457 -36.1457 -10.1490  -9.9694  -9.9694  -0.7647
    -0.7647  -0.0210   0.8266   0.8768   0.8768   6.1892   6.1892   6.3066
    10.6070  10.7610  10.7610  15.8388  17.5913  17.5913  19.3464  20.4861
    20.4861  22.6619  22.6619  23.3599  24.1610  27.8286  27.8286  28.5090
    31.1717  32.5181  32.5181  32.6035  34.8218  34.8218  37.9719  39.1873
    39.1873  40.2347  40.2347  41.9212  42.5256  42.5256  42.8874  44.2528
    44.2528  44.3468  44.7686  44.7686  45.9629  46.1556  47.8787  47.8787
    49.6620  51.7869

     occupation numbers 
     1.0000   1.0000   1.0000   1.0000   1.0000   1.0000   1.0000   1.0000
     1.0000   1.0000   1.0000   1.0000   1.0000   1.0000   1.0000   1.0000
    -0.0000  -0.0000  -0.0000  -0.0000  -0.0000  -0.0000  -0.0000  -0.0000
    -0.0000  -0.0000  -0.0000  -0.0000  -0.0000  -0.0000  -0.0000  -0.0000
    -0.0000  -0.0000  -0.0000  -0.0000  -0.0000  -0.0000  -0.0000  -0.0000
    -0.0000  -0.0000  -0.0000  -0.0000  -0.0000  -0.0000  -0.0000  -0.0000
    -0.0000  -0.0000  -0.0000  -0.0000  -0.0000  -0.0000  -0.0000  -0.0000
    -0.0000  -0.0000

          k = 0.3772 0.3772 0.4610 (  7794 PWs)   bands (ev):

   -74.2768 -36.1519 -36.1453 -36.1452 -10.0862  -9.9637  -9.7577  -1.2211
    -0.7598  -0.1341   0.6689   0.7123   0.8733   6.2283   6.2937   6.3855
    10.7102  10.9324  11.0267  15.7170  17.5870  18.1545  19.6429  20.0638
    20.9655  21.8689  22.8089  23.0829  24.0662  27.7996  27.9386  28.2851
    31.2785  32.2970  32.9536  33.8115  34.8093  34.9511  36.9093  38.7472
    39.3143  39.6226  40.7164  42.0633  43.0218  43.1872  43.7523  43.7670
    44.1216  44.3156  44.3580  44.5329  45.4822  45.7459  46.1733  47.7584
    49.5389  51.7250

     occupation numbers 
     1.0000   1.0000   1.0000   1.0000   1.0000   1.0000   1.0000   1.0000
     1.0000   1.0000   1.0000   1.0000   1.0000   1.0000   1.0000   1.0000
    -0.0000  -0.0000  -0.0000  -0.0000  -0.0000  -0.0000  -0.0000  -0.0000
    -0.0000  -0.0000  -0.0000  -0.0000  -0.0000  -0.0000  -0.0000  -0.0000
    -0.0000  -0.0000  -0.0000  -0.0000  -0.0000  -0.0000  -0.0000  -0.0000
    -0.0000  -0.0000  -0.0000  -0.0000  -0.0000  -0.0000  -0.0000  -0.0000
    -0.0000  -0.0000  -0.0000  -0.0000  -0.0000  -0.0000  -0.0000  -0.0000
    -0.0000  -0.0000

          k = 0.3772 0.4610 0.4610 (  7780 PWs)   bands (ev):

   -74.2768 -36.1515 -36.1514 -36.1448 -10.0215  -9.7582  -9.7467  -1.3274
    -1.0721  -0.2893   0.5264   0.7030   0.7065   6.3363   6.3416   6.4830
    10.9721  10.9893  11.2267  15.5648  17.8554  18.4950  19.9306  20.1661
    20.8082  21.6914  22.4757  22.6326  24.1402  27.8470  27.8609  28.0565
    31.3109  33.0930  33.6897  34.1439  34.7763  35.0127  36.6389  37.1921
    38.9972  39.5857  41.6685  42.9873  43.2445  43.4198  43.6573  43.8167
    43.8467  44.1674  44.3494  44.6124  44.9234  45.1003  45.1956  46.7707
    49.4706  51.7375

     occupation numbers 
     1.0000   1.0000   1.0000   1.0000   1.0000   1.0000   1.0000   1.0000
     1.0000   1.0000   1.0000   1.0000   1.0000   1.0000   1.0000   1.0000
    -0.0000  -0.0000  -0.0000  -0.0000  -0.0000  -0.0000  -0.0000  -0.0000
    -0.0000  -0.0000  -0.0000  -0.0000  -0.0000  -0.0000  -0.0000  -0.0000
    -0.0000  -0.0000  -0.0000  -0.0000  -0.0000  -0.0000  -0.0000  -0.0000
    -0.0000  -0.0000  -0.0000  -0.0000  -0.0000  -0.0000  -0.0000  -0.0000
    -0.0000  -0.0000  -0.0000  -0.0000  -0.0000  -0.0000  -0.0000  -0.0000
    -0.0000  -0.0000

          k = 0.4610 0.4610 0.4610 (  7742 PWs)   bands (ev):

   -74.2769 -36.1510 -36.1510 -36.1510  -9.7628  -9.7405  -9.7405  -1.3253
    -1.3253  -0.6199   0.5360   0.5437   0.5437   6.4768   6.4768   6.4913
    11.2148  11.2358  11.2358  15.3906  18.4955  18.4955  20.2466  20.5340
    20.5340  21.7903  21.7903  22.0447  24.2647  27.7740  27.7740  27.8324
    31.9377  34.0899  34.0899  34.4567  34.9569  34.9569  36.1661  36.8135
    36.8135  41.5550  41.5550  43.1309  43.3357  43.6131  43.6131  43.6613
    44.3381  44.3806  44.3806  44.4406  44.4406  44.7863  44.7863  45.0242
    49.1791  52.0465

     occupation numbers 
     1.0000   1.0000   1.0000   1.0000   1.0000   1.0000   1.0000   1.0000
     1.0000   1.0000   1.0000   1.0000   1.0000   1.0000   1.0000   1.0000
    -0.0000  -0.0000  -0.0000  -0.0000  -0.0000  -0.0000  -0.0000  -0.0000
    -0.0000  -0.0000  -0.0000  -0.0000  -0.0000  -0.0000  -0.0000  -0.0000
    -0.0000  -0.0000  -0.0000  -0.0000  -0.0000  -0.0000  -0.0000  -0.0000
    -0.0000  -0.0000  -0.0000  -0.0000  -0.0000  -0.0000  -0.0000  -0.0000
    -0.0000  -0.0000  -0.0000  -0.0000  -0.0000  -0.0000  -0.0000  -0.0000
    -0.0000  -0.0000

     the Fermi energy is     8.1789 ev

!    total energy              =    -287.65394743 Ry
     Harris-Foulkes estimate   =    -287.65394743 Ry
     estimated scf accuracy    <          1.6E-10 Ry

     The total energy is the sum of the following terms:

     one-electron contribution =    -135.02196023 Ry
     hartree contribution      =      80.31299270 Ry
     xc contribution           =     -73.73526771 Ry
     ewald contribution        =    -159.20877550 Ry
     smearing contrib. (-TS)   =      -0.00093669 Ry

     convergence has been achieved in   9 iterations

     negative rho (up, down):  1.444E-01 0.000E+00

     Forces acting on atoms (cartesian axes, Ry/au):

     atom    1 type  2   force =     0.00000000    0.00000000    0.00000000
     atom    2 type  2   force =     0.00000000    0.00000000    0.00000000
     atom    3 type  2   force =     0.00000000    0.00000000    0.00000000
     atom    4 type  1   force =     0.00000000    0.00000000    0.00000000
     The non-local contrib.  to forces
     atom    1 type  2   force =     0.00000000    0.00000000    0.00000000
     atom    2 type  2   force =     0.00000000    0.00000000    0.00000000
     atom    3 type  2   force =     0.00000000    0.00000000    0.00000000
     atom    4 type  1   force =     0.00000000    0.00000000    0.00000000
     The ionic contribution  to forces
     atom    1 type  2   force =     0.00000000    0.00000000   -0.00000000
     atom    2 type  2   force =     0.00000000   -0.00000000    0.00000000
     atom    3 type  2   force =    -0.00000000    0.00000000    0.00000000
     atom    4 type  1   force =     0.00000000    0.00000000    0.00000000
     The local contribution  to forces
     atom    1 type  2   force =     0.00000000    0.00000000   -0.00000000
     atom    2 type  2   force =     0.00000000   -0.00000000    0.00000000
     atom    3 type  2   force =    -0.00000000    0.00000000    0.00000000
     atom    4 type  1   force =     0.00000000    0.00000000    0.00000000
     The core correction contribution to forces
     atom    1 type  2   force =     0.00000000    0.00000000   -0.00000000
     atom    2 type  2   force =     0.00000000   -0.00000000   -0.00000000
     atom    3 type  2   force =    -0.00000000    0.00000000   -0.00000000
     atom    4 type  1   force =    -0.00000000   -0.00000000    0.00000000
     The Hubbard contrib.    to forces
     atom    1 type  2   force =     0.00000000    0.00000000    0.00000000
     atom    2 type  2   force =     0.00000000    0.00000000    0.00000000
     atom    3 type  2   force =     0.00000000    0.00000000    0.00000000
     atom    4 type  1   force =     0.00000000    0.00000000    0.00000000
     The SCF correction term to forces
     atom    1 type  2   force =     0.00000000    0.00000000   -0.00000000
     atom    2 type  2   force =     0.00000000   -0.00000000    0.00000000
     atom    3 type  2   force =    -0.00000000    0.00000000    0.00000000
     atom    4 type  1   force =     0.00000000    0.00000000    0.00000000

     Total force =     0.000000     Total SCF correction =     0.000000


     Computing stress (Cartesian axis) and pressure


     negative rho (up, down):  1.444E-01 0.000E+00
          total   stress  (Ry/bohr**3)                   (kbar)     P=    0.17
   0.00000117   0.00000000   0.00000000          0.17      0.00      0.00
   0.00000000   0.00000117   0.00000000          0.00      0.17      0.00
   0.00000000   0.00000000   0.00000117          0.00      0.00      0.17

     kinetic stress (kbar)  26348.27      0.00      0.00
                                0.00  26348.27      0.00
                                0.00      0.00  26348.27

     local   stress (kbar)  -2126.20      0.00      0.00
                                0.00  -2126.20      0.00
                                0.00      0.00  -2126.20

     nonloc. stress (kbar)  -6479.80      0.00      0.00
                                0.00  -6479.80      0.00
                                0.00      0.00  -6479.80

     hartree stress (kbar)  11238.14     -0.00     -0.00
                               -0.00  11238.14     -0.00
                               -0.00     -0.00  11238.14

     exc-cor stress (kbar)   8796.20      0.00      0.00
                                0.00   8796.20      0.00
                                0.00      0.00   8796.20

     corecor stress (kbar) -15498.47      0.00     -0.00
                                0.00 -15498.47      0.00
                                0.00      0.00 -15498.47

     ewald   stress (kbar) -22277.96     -0.00     -0.00
                               -0.00 -22277.96     -0.00
                               -0.00     -0.00 -22277.96

     hubbard stress (kbar)      0.00      0.00      0.00
                                0.00      0.00      0.00
                                0.00      0.00      0.00

     london  stress (kbar)      0.00      0.00      0.00
                                0.00      0.00      0.00
                                0.00      0.00      0.00

     DFT-D3  stress (kbar)      0.00      0.00      0.00
                                0.00      0.00      0.00
                                0.00      0.00      0.00

     XDM     stress (kbar)      0.00      0.00      0.00
                                0.00      0.00      0.00
                                0.00      0.00      0.00

     dft-nl  stress (kbar)      0.00      0.00      0.00
                                0.00      0.00      0.00
                                0.00      0.00      0.00

     TS-vdW  stress (kbar)      0.00      0.00      0.00
                                0.00      0.00      0.00
                                0.00      0.00      0.00



     init_run     :      1.83s CPU      1.92s WALL (       2 calls)
     electrons    :     35.36s CPU     37.81s WALL (       6 calls)
     update_pot   :      2.99s CPU      3.03s WALL (       4 calls)
     forces       :      2.33s CPU      2.44s WALL (       6 calls)
     stress       :      7.05s CPU      7.19s WALL (       6 calls)

     Called by init_run:
     wfcinit      :      0.38s CPU      0.40s WALL (       2 calls)
     wfcinit:atom :      0.01s CPU      0.01s WALL (      14 calls)
     wfcinit:wfcr :      0.33s CPU      0.34s WALL (      14 calls)
     potinit      :      0.20s CPU      0.20s WALL (       2 calls)
     hinit0       :      1.14s CPU      1.19s WALL (       2 calls)

     Called by electrons:
     c_bands      :     30.04s CPU     32.12s WALL (      49 calls)
     sum_band     :      4.53s CPU      4.71s WALL (      49 calls)
     v_of_rho     :      0.11s CPU      0.12s WALL (      53 calls)
     v_h          :      0.03s CPU      0.03s WALL (      53 calls)
     v_xc         :      0.11s CPU      0.11s WALL (      65 calls)
     newd         :      0.59s CPU      0.60s WALL (      53 calls)
     mix_rho      :      0.08s CPU      0.08s WALL (      49 calls)

     Called by c_bands:
     init_us_2    :      0.60s CPU      0.62s WALL (     784 calls)
     cegterg      :     26.16s CPU     27.94s WALL (     343 calls)

     Called by sum_band:
     sum_band:bec :      0.01s CPU      0.01s WALL (     343 calls)
     addusdens    :      0.58s CPU      0.66s WALL (      49 calls)

     Called by *egterg:
     h_psi        :     15.06s CPU     15.57s WALL (    1098 calls)
     s_psi        :      0.73s CPU      0.81s WALL (    1098 calls)
     g_psi        :      0.14s CPU      0.14s WALL (     741 calls)
     cdiaghg      :      4.83s CPU      5.24s WALL (    1042 calls)
     cegterg:over :      2.22s CPU      2.74s WALL (     741 calls)
     cegterg:upda :      1.58s CPU      1.65s WALL (     741 calls)
     cegterg:last :      0.81s CPU      0.83s WALL (     361 calls)
     cdiaghg:chol :      0.38s CPU      0.48s WALL (    1042 calls)
     cdiaghg:inve :      0.07s CPU      0.07s WALL (    1042 calls)
     cdiaghg:para :      0.76s CPU      0.87s WALL (    2084 calls)

     Called by h_psi:
     h_psi:pot    :     14.82s CPU     15.28s WALL (    1098 calls)
     h_psi:calbec :      0.99s CPU      1.08s WALL (    1098 calls)
     vloc_psi     :     13.10s CPU     13.46s WALL (    1098 calls)
     add_vuspsi   :      0.73s CPU      0.73s WALL (    1098 calls)

     General routines
     calbec       :      1.53s CPU      1.63s WALL (    1651 calls)
     fft          :      0.10s CPU      0.10s WALL (     266 calls)
     ffts         :      0.02s CPU      0.02s WALL (      49 calls)
     fftw         :     14.03s CPU     14.41s WALL (  114134 calls)

     Parallel routines
     fft_scatt_xy :      2.09s CPU      2.12s WALL (  114449 calls)
     fft_scatt_yz :      4.55s CPU      4.71s WALL (  114449 calls)

     PWSCF        :     49.90s CPU     52.88s WALL


   This run was terminated on:  22:58:47  29Jan2021            

=------------------------------------------------------------------------------=
   JOB DONE.
=------------------------------------------------------------------------------=
