
     Program PHONON v.6.4 starts on 26Jan2021 at 23:25:42 

     This program is part of the open-source Quantum ESPRESSO suite
     for quantum simulation of materials; please cite
         "P. Giannozzi et al., J. Phys.:Condens. Matter 21 395502 (2009);
         "P. Giannozzi et al., J. Phys.:Condens. Matter 29 465901 (2017);
          URL http://www.quantum-espresso.org", 
     in publications or presentations arising from this work. More details at
     http://www.quantum-espresso.org/quote

     Parallel version (MPI), running on    64 processors

     MPI processes distributed on     1 nodes
     K-points division:     npool     =       8
     R & G space division:  proc/nbgrp/npool/nimage =       8


     Dynamical matrices for q-points given in input
     (   4q-points):
       N         xq(1)         xq(2)         xq(3) 
       1   0.000000000   0.000000000   0.000000000
       2   0.500000000   0.000000000   0.000000000
       3   0.500000000   0.500000000   0.000000000
       4   0.500000000   0.500000000   0.500000000

     Reading data from directory:
     /public3/home/sc55341/ReO3_phonon/ps_PSL_PAW_PZ_SR.Re-spn-1.0.0.O-n-0.1_kp_12,12,12,1,1,1_kBar_0.2_dg_0.02/ReO3_scf/ReO3.save/

     IMPORTANT: XC functional enforced from input :
     Exchange-correlation      = PZ ( 1  1  0  0 0 0)
     Any further DFT definition will be discarded
     Please, verify this is what you really want

               file Re.pz-spn-kjpaw_psl.1.0.0.UPF: wavefunction(s)  5P 5D renormalized
               file O.pz-n-kjpaw_psl.0.1.UPF: wavefunction(s)  2P renormalized

     Parallelization info
     --------------------
     sticks:   dense  smooth     PW     G-vecs:    dense   smooth      PW
     Min         196     196     54                 5862     5862     888
     Max         200     200     55                 5863     5863     893
     Sum        1581    1581    437                46897    46897    7123


     Check: negative core charge=   -0.000002
  autoval = -.1633E+00
     Irreps are as follows:

                     mode #   1
                     (  -0.18250  -0.00000   ) 
                     (   0.07359   0.00000   ) 
                     (   0.15980   0.00000   ) 
                     (  -0.18250  -0.00000   ) 
                     (   0.35376   0.00000   ) 
                     (   0.03324   0.00000   ) 
                     (  -0.87730  -0.00000   ) 
                     (   0.07359   0.00000   ) 
                     (   0.03324   0.00000   ) 
                     (  -0.00000   0.00000   ) 
                     (  -0.00000   0.00000   ) 
                     (  -0.00000   0.00000   ) 
  autoval = -.1633E+00
     Irreps are as follows:

                     mode #   2
                     (  -0.07473  -0.00000   ) 
                     (  -0.18505  -0.00000   ) 
                     (  -0.00291  -0.00000   ) 
                     (  -0.07473  -0.00000   ) 
                     (  -0.88955  -0.00000   ) 
                     (  -0.00061  -0.00000   ) 
                     (  -0.35923  -0.00000   ) 
                     (  -0.18505  -0.00000   ) 
                     (  -0.00061  -0.00000   ) 
                     (  -0.00000   0.00000   ) 
                     (  -0.00000   0.00000   ) 
                     (  -0.00000   0.00000   ) 
  autoval = -.1633E+00
     Irreps are as follows:

                     mode #   3
                     (  -0.03060  -0.00000   ) 
                     (   0.01300  -0.00000   ) 
                     (  -0.94594  -0.00000   ) 
                     (  -0.03060  -0.00000   ) 
                     (   0.06250  -0.00000   ) 
                     (  -0.19678  -0.00000   ) 
                     (  -0.14710  -0.00000   ) 
                     (   0.01300  -0.00000   ) 
                     (  -0.19678  -0.00000   ) 
                     (  -0.00000  -0.00000   ) 
                     (  -0.00000  -0.00000   ) 
                     (  -0.00000  -0.00000   ) 
  autoval = -.9230E-01
     Irreps are as follows:

                     mode #   4
                     (  -0.00530  -0.00000   ) 
                     (   0.13477  -0.00000   ) 
                     (  -0.00000  -0.00000   ) 
                     (   0.00530  -0.00000   ) 
                     (   0.00000  -0.00000   ) 
                     (   0.69412  -0.00000   ) 
                     (   0.00000  -0.00000   ) 
                     (  -0.13477  -0.00000   ) 
                     (  -0.69412  -0.00000   ) 
                     (  -0.00000  -0.00000   ) 
                     (  -0.00000  -0.00000   ) 
                     (  -0.00000  -0.00000   ) 
  autoval = -.9230E-01
     Irreps are as follows:

                     mode #   5
                     (  -0.03426  -0.00000   ) 
                     (   0.69328   0.00000   ) 
                     (   0.00000   0.00000   ) 
                     (   0.03426   0.00000   ) 
                     (   0.00000   0.00000   ) 
                     (  -0.13487  -0.00000   ) 
                     (  -0.00000  -0.00000   ) 
                     (  -0.69328  -0.00000   ) 
                     (   0.13487   0.00000   ) 
                     (  -0.00000   0.00000   ) 
                     (  -0.00000   0.00000   ) 
                     (  -0.00000   0.00000   ) 
  autoval = -.9230E-01
     Irreps are as follows:

                     mode #   6
                     (  -0.70626  -0.00000   ) 
                     (  -0.03464  -0.00000   ) 
                     (  -0.00000  -0.00000   ) 
                     (   0.70626  -0.00000   ) 
                     (   0.00000  -0.00000   ) 
                     (   0.00133  -0.00000   ) 
                     (  -0.00000  -0.00000   ) 
                     (   0.03464  -0.00000   ) 
                     (  -0.00133  -0.00000   ) 
                     (  -0.00000  -0.00000   ) 
                     (  -0.00000  -0.00000   ) 
                     (  -0.00000  -0.00000   ) 
  autoval = 0.4516E-02
     Irreps are as follows:

                     mode #   7
                     (  -0.00000  -0.00000   ) 
                     (  -0.00000  -0.00000   ) 
                     (  -0.00000  -0.00000   ) 
                     (  -0.00000  -0.00000   ) 
                     (  -0.00000  -0.00000   ) 
                     (  -0.00000  -0.00000   ) 
                     (  -0.00000  -0.00000   ) 
                     (  -0.00000  -0.00000   ) 
                     (  -0.00000  -0.00000   ) 
                     (  -0.00000  -0.00000   ) 
                     (  -0.00000  -0.00000   ) 
                     (  -1.00000  -0.00000   ) 
  autoval = 0.4516E-02
     Irreps are as follows:

                     mode #   8
                     (  -0.00000   0.00000   ) 
                     (  -0.00000   0.00000   ) 
                     (  -0.00000   0.00000   ) 
                     (  -0.00000   0.00000   ) 
                     (  -0.00000   0.00000   ) 
                     (  -0.00000   0.00000   ) 
                     (  -0.00000   0.00000   ) 
                     (  -0.00000   0.00000   ) 
                     (  -0.00000   0.00000   ) 
                     (  -0.00000   0.00000   ) 
                     (  -1.00000  -0.00000   ) 
                     (  -0.00000  -0.00000   ) 
  autoval = 0.4516E-02
     Irreps are as follows:

                     mode #   9
                     (  -0.00000   0.00000   ) 
                     (  -0.00000   0.00000   ) 
                     (  -0.00000   0.00000   ) 
                     (  -0.00000   0.00000   ) 
                     (  -0.00000   0.00000   ) 
                     (  -0.00000   0.00000   ) 
                     (  -0.00000   0.00000   ) 
                     (  -0.00000   0.00000   ) 
                     (  -0.00000   0.00000   ) 
                     (  -1.00000  -0.00000   ) 
                     (  -0.00000  -0.00000   ) 
                     (  -0.00000  -0.00000   ) 
  autoval = 0.1025E+01
     Irreps are as follows:

                     mode #  10
                     (  -0.00000  -0.00000   ) 
                     (   0.00000   0.00000   ) 
                     (  -0.28223  -0.00000   ) 
                     (  -0.00000  -0.00000   ) 
                     (  -0.00000  -0.00000   ) 
                     (   0.67836   0.00000   ) 
                     (   0.00000   0.00000   ) 
                     (   0.00000  -0.00000   ) 
                     (   0.67836   0.00000   ) 
                     (  -0.00000   0.00000   ) 
                     (  -0.00000   0.00000   ) 
                     (  -0.00000   0.00000   ) 
  autoval = 0.1025E+01
     Irreps are as follows:

                     mode #  11
                     (  -0.00222  -0.00000   ) 
                     (   0.67836   0.00000   ) 
                     (  -0.00000  -0.00000   ) 
                     (  -0.00222  -0.00000   ) 
                     (  -0.28223  -0.00000   ) 
                     (   0.00000   0.00000   ) 
                     (   0.00092   0.00000   ) 
                     (   0.67836   0.00000   ) 
                     (  -0.00000  -0.00000   ) 
                     (  -0.00000   0.00000   ) 
                     (  -0.00000   0.00000   ) 
                     (  -0.00000   0.00000   ) 
  autoval = 0.1025E+01
     Irreps are as follows:

                     mode #  12
                     (  -0.67836  -0.00000   ) 
                     (  -0.00222  -0.00000   ) 
                     (  -0.00000  -0.00000   ) 
                     (  -0.67836  -0.00000   ) 
                     (   0.00092   0.00000   ) 
                     (  -0.00000  -0.00000   ) 
                     (   0.28223   0.00000   ) 
                     (  -0.00222  -0.00000   ) 
                     (  -0.00000  -0.00000   ) 
                     (  -0.00000   0.00000   ) 
                     (  -0.00000   0.00000   ) 
                     (  -0.00000   0.00000   ) 
  autoval = -.2463E+01
     Irreps are as follows:

                     mode #   1
                     (  -0.00000   0.00000   ) 
                     (  -0.00000   0.00000   ) 
                     (  -0.00000   0.00000   ) 
                     (  -0.00000   0.00000   ) 
                     (  -0.00000   0.00000   ) 
                     (  -0.00000   0.00000   ) 
                     (  -0.00000   0.00000   ) 
                     (  -0.00000   0.00000   ) 
                     (  -1.00000  -0.00000   ) 
                     (  -0.00000  -0.00000   ) 
                     (  -0.00000  -0.00000   ) 
                     (  -0.00000  -0.00000   ) 
  autoval = -.2463E+01
     Irreps are as follows:

                     mode #   2
                     (  -0.00000   0.00000   ) 
                     (  -0.00000   0.00000   ) 
                     (  -0.00000   0.00000   ) 
                     (  -0.00000   0.00000   ) 
                     (  -0.00000   0.00000   ) 
                     (  -0.00000   0.00000   ) 
                     (  -0.00000   0.00000   ) 
                     (  -1.00000  -0.00000   ) 
                     (  -0.00000  -0.00000   ) 
                     (  -0.00000  -0.00000   ) 
                     (  -0.00000  -0.00000   ) 
                     (  -0.00000  -0.00000   ) 
  autoval = -.2285E+01
     Irreps are as follows:

                     mode #   3
                     (  -0.00000   0.00000   ) 
                     (  -0.00000   0.00000   ) 
                     (  -0.00000   0.00000   ) 
                     (  -0.00000   0.00000   ) 
                     (  -0.00000   0.00000   ) 
                     (  -0.00000   0.00000   ) 
                     (  -0.00000   0.00000   ) 
                     (  -0.00000   0.00000   ) 
                     (  -0.00000   0.00000   ) 
                     (  -1.00000  -0.00000   ) 
                     (  -0.00000  -0.00000   ) 
                     (  -0.00000  -0.00000   ) 
  autoval = -.1513E+01
     Irreps are as follows:

                     mode #   4
                     (  -0.00000  -0.00000   ) 
                     (  -0.00000  -0.00000   ) 
                     (  -0.00000  -0.00000   ) 
                     (  -0.00000  -0.00000   ) 
                     (  -0.00000  -0.00000   ) 
                     (  -0.00000  -0.00000   ) 
                     (  -0.00000  -0.00000   ) 
                     (  -0.00000  -0.00000   ) 
                     (  -0.00000  -0.00000   ) 
                     (  -0.00000  -0.00000   ) 
                     (  -0.00000  -0.00000   ) 
                     (  -1.00000  -0.00000   ) 
  autoval = -.1513E+01
     Irreps are as follows:

                     mode #   5
                     (  -0.00000   0.00000   ) 
                     (  -0.00000   0.00000   ) 
                     (  -0.00000   0.00000   ) 
                     (  -0.00000   0.00000   ) 
                     (  -0.00000   0.00000   ) 
                     (  -0.00000   0.00000   ) 
                     (  -0.00000   0.00000   ) 
                     (  -0.00000   0.00000   ) 
                     (  -0.00000   0.00000   ) 
                     (  -0.00000   0.00000   ) 
                     (  -1.00000  -0.00000   ) 
                     (  -0.00000  -0.00000   ) 
  autoval = -.1003E+01
     Irreps are as follows:

                     mode #   6
                     (  -0.00000   0.00000   ) 
                     (  -0.97535  -0.00000   ) 
                     (  -0.00000   0.00000   ) 
                     (  -0.00000   0.00000   ) 
                     (   0.22066   0.00000   ) 
                     (  -0.00000   0.00000   ) 
                     (  -0.00000   0.00000   ) 
                     (  -0.00000   0.00000   ) 
                     (  -0.00000   0.00000   ) 
                     (  -0.00000   0.00000   ) 
                     (  -0.00000   0.00000   ) 
                     (  -0.00000   0.00000   ) 
  autoval = -.1003E+01
     Irreps are as follows:

                     mode #   7
                     (  -0.00000  -0.00000   ) 
                     (  -0.00000  -0.00000   ) 
                     (  -0.22066  -0.00000   ) 
                     (  -0.00000  -0.00000   ) 
                     (  -0.00000  -0.00000   ) 
                     (   0.97535  -0.00000   ) 
                     (   0.00000  -0.00000   ) 
                     (   0.00000  -0.00000   ) 
                     (   0.00000  -0.00000   ) 
                     (   0.00000  -0.00000   ) 
                     (   0.00000  -0.00000   ) 
                     (   0.00000  -0.00000   ) 
  autoval = -.8445E-01
     Irreps are as follows:

                     mode #   8
                     (  -0.00000   0.00000   ) 
                     (  -0.00000   0.00000   ) 
                     (  -0.00000   0.00000   ) 
                     (  -0.00000   0.00000   ) 
                     (  -0.00000   0.00000   ) 
                     (  -0.00000   0.00000   ) 
                     (  -1.00000  -0.00000   ) 
                     (  -0.00000  -0.00000   ) 
                     (  -0.00000  -0.00000   ) 
                     (  -0.00000  -0.00000   ) 
                     (  -0.00000  -0.00000   ) 
                     (  -0.00000  -0.00000   ) 
  autoval = 0.5215E+00
     Irreps are as follows:

                     mode #   9
                     (  -0.70711  -0.00000   ) 
                     (  -0.00000  -0.00000   ) 
                     (  -0.00000  -0.00000   ) 
                     (   0.70711  -0.00000   ) 
                     (   0.00000  -0.00000   ) 
                     (   0.00000  -0.00000   ) 
                     (   0.00000  -0.00000   ) 
                     (   0.00000  -0.00000   ) 
                     (   0.00000  -0.00000   ) 
                     (   0.00000  -0.00000   ) 
                     (   0.00000  -0.00000   ) 
                     (   0.00000  -0.00000   ) 
  autoval = 0.1014E+01
     Irreps are as follows:

                     mode #  10
                     (  -0.00000  -0.00000   ) 
                     (  -0.22066  -0.00000   ) 
                     (  -0.00000  -0.00000   ) 
                     (  -0.00000  -0.00000   ) 
                     (  -0.97535  -0.00000   ) 
                     (  -0.00000  -0.00000   ) 
                     (  -0.00000  -0.00000   ) 
                     (  -0.00000  -0.00000   ) 
                     (  -0.00000  -0.00000   ) 
                     (  -0.00000  -0.00000   ) 
                     (  -0.00000  -0.00000   ) 
                     (  -0.00000  -0.00000   ) 
  autoval = 0.1014E+01
     Irreps are as follows:

                     mode #  11
                     (  -0.00000  -0.00000   ) 
                     (  -0.00000  -0.00000   ) 
                     (  -0.97535  -0.00000   ) 
                     (  -0.00000  -0.00000   ) 
                     (  -0.00000   0.00000   ) 
                     (  -0.22066  -0.00000   ) 
                     (  -0.00000  -0.00000   ) 
                     (  -0.00000  -0.00000   ) 
                     (  -0.00000  -0.00000   ) 
                     (  -0.00000  -0.00000   ) 
                     (  -0.00000  -0.00000   ) 
                     (  -0.00000  -0.00000   ) 
  autoval = 0.1959E+01
     Irreps are as follows:

                     mode #  12
                     (  -0.70711  -0.00000   ) 
                     (  -0.00000  -0.00000   ) 
                     (  -0.00000   0.00000   ) 
                     (  -0.70711  -0.00000   ) 
                     (  -0.00000  -0.00000   ) 
                     (  -0.00000  -0.00000   ) 
                     (  -0.00000  -0.00000   ) 
                     (  -0.00000  -0.00000   ) 
                     (  -0.00000  -0.00000   ) 
                     (  -0.00000  -0.00000   ) 
                     (  -0.00000  -0.00000   ) 
                     (  -0.00000  -0.00000   ) 
  autoval = -.2693E+01
     Irreps are as follows:

                     mode #   1
                     (  -0.00000   0.00000   ) 
                     (  -0.00000   0.00000   ) 
                     (  -1.00000  -0.00000   ) 
                     (  -0.00000  -0.00000   ) 
                     (  -0.00000  -0.00000   ) 
                     (  -0.00000  -0.00000   ) 
                     (  -0.00000  -0.00000   ) 
                     (  -0.00000  -0.00000   ) 
                     (  -0.00000  -0.00000   ) 
                     (  -0.00000  -0.00000   ) 
                     (  -0.00000  -0.00000   ) 
                     (  -0.00000  -0.00000   ) 
  autoval = -.1999E+01
     Irreps are as follows:

                     mode #   2
                     (  -0.00000   0.00000   ) 
                     (  -0.00000   0.00000   ) 
                     (  -0.00000   0.00000   ) 
                     (  -0.00000   0.00000   ) 
                     (  -0.00000   0.00000   ) 
                     (  -0.00000   0.00000   ) 
                     (  -0.00000   0.00000   ) 
                     (  -0.00000   0.00000   ) 
                     (  -0.00000   0.00000   ) 
                     (  -1.00000  -0.00000   ) 
                     (  -0.00000  -0.00000   ) 
                     (  -0.00000  -0.00000   ) 
  autoval = -.1999E+01
     Irreps are as follows:

                     mode #   3
                     (  -0.00000   0.00000   ) 
                     (  -0.00000   0.00000   ) 
                     (  -0.00000   0.00000   ) 
                     (  -0.00000   0.00000   ) 
                     (  -0.00000   0.00000   ) 
                     (  -0.00000   0.00000   ) 
                     (  -0.00000   0.00000   ) 
                     (  -0.00000   0.00000   ) 
                     (  -0.00000   0.00000   ) 
                     (  -0.00000   0.00000   ) 
                     (  -1.00000  -0.00000   ) 
                     (  -0.00000  -0.00000   ) 
  autoval = -.1784E+01
     Irreps are as follows:

                     mode #   4
                     (  -0.00000   0.00000   ) 
                     (  -0.00000   0.00000   ) 
                     (  -0.00000   0.00000   ) 
                     (  -0.70711  -0.00000   ) 
                     (  -0.00000   0.00000   ) 
                     (  -0.00000   0.00000   ) 
                     (  -0.00000  -0.00000   ) 
                     (  -0.70711   0.00000   ) 
                     (  -0.00000  -0.00000   ) 
                     (  -0.00000  -0.00000   ) 
                     (  -0.00000  -0.00000   ) 
                     (  -0.00000  -0.00000   ) 
  autoval = -.1448E+01
     Irreps are as follows:

                     mode #   5
                     (   0.00000  -0.00000   ) 
                     (   0.00000  -0.00000   ) 
                     (   0.00000  -0.00000   ) 
                     (  -0.70711  -0.00000   ) 
                     (   0.00000  -0.00000   ) 
                     (   0.00000  -0.00000   ) 
                     (  -0.00000  -0.00000   ) 
                     (   0.70711  -0.00000   ) 
                     (   0.00000  -0.00000   ) 
                     (   0.00000  -0.00000   ) 
                     (   0.00000  -0.00000   ) 
                     (   0.00000  -0.00000   ) 
  autoval = -.1313E+01
     Irreps are as follows:

                     mode #   6
                     (  -0.00000  -0.00000   ) 
                     (  -0.00000  -0.00000   ) 
                     (  -0.00000  -0.00000   ) 
                     (  -0.00000  -0.00000   ) 
                     (  -0.00000  -0.00000   ) 
                     (  -0.00000  -0.00000   ) 
                     (  -0.00000  -0.00000   ) 
                     (  -0.00000  -0.00000   ) 
                     (  -0.00000  -0.00000   ) 
                     (  -0.00000  -0.00000   ) 
                     (  -0.00000  -0.00000   ) 
                     (  -1.00000  -0.00000   ) 
  autoval = -.9277E+00
     Irreps are as follows:

                     mode #   7
                     (  -0.00000   0.00000   ) 
                     (  -0.00000   0.00000   ) 
                     (  -0.00000   0.00000   ) 
                     (  -0.00000   0.00000   ) 
                     (  -0.00000   0.00000   ) 
                     (  -0.00000   0.00000   ) 
                     (  -0.00000   0.00000   ) 
                     (  -0.00000   0.00000   ) 
                     (  -1.00000  -0.00000   ) 
                     (  -0.00000  -0.00000   ) 
                     (  -0.00000  -0.00000   ) 
                     (  -0.00000  -0.00000   ) 
  autoval = -.9277E+00
     Irreps are as follows:

                     mode #   8
                     (  -0.00000   0.00000   ) 
                     (  -0.00000   0.00000   ) 
                     (  -0.00000   0.00000   ) 
                     (  -0.00000   0.00000   ) 
                     (  -0.00000   0.00000   ) 
                     (  -1.00000  -0.00000   ) 
                     (  -0.00000  -0.00000   ) 
                     (  -0.00000  -0.00000   ) 
                     (  -0.00000  -0.00000   ) 
                     (  -0.00000  -0.00000   ) 
                     (  -0.00000  -0.00000   ) 
                     (  -0.00000  -0.00000   ) 
  autoval = -.3018E+00
     Irreps are as follows:

                     mode #   9
                     (  -0.00000   0.00000   ) 
                     (  -0.00000   0.00000   ) 
                     (  -0.00000   0.00000   ) 
                     (  -0.00000   0.00000   ) 
                     (  -0.70711  -0.00000   ) 
                     (  -0.00000  -0.00000   ) 
                     (   0.70711  -0.00000   ) 
                     (  -0.00000  -0.00000   ) 
                     (  -0.00000  -0.00000   ) 
                     (  -0.00000  -0.00000   ) 
                     (  -0.00000  -0.00000   ) 
                     (  -0.00000  -0.00000   ) 
  autoval = 0.1902E+00
     Irreps are as follows:

                     mode #  10
                     (  -0.00000  -0.00000   ) 
                     (  -0.00000  -0.00000   ) 
                     (  -0.00000  -0.00000   ) 
                     (   0.00000   0.00000   ) 
                     (  -0.70711  -0.00000   ) 
                     (  -0.00000  -0.00000   ) 
                     (  -0.70711   0.00000   ) 
                     (  -0.00000  -0.00000   ) 
                     (  -0.00000  -0.00000   ) 
                     (  -0.00000  -0.00000   ) 
                     (  -0.00000  -0.00000   ) 
                     (  -0.00000  -0.00000   ) 
  autoval = 0.2348E+01
     Irreps are as follows:

                     mode #  11
                     (  -1.00000  -0.00000   ) 
                     (  -0.00000  -0.00000   ) 
                     (  -0.00000  -0.00000   ) 
                     (  -0.00000  -0.00000   ) 
                     (  -0.00000  -0.00000   ) 
                     (  -0.00000  -0.00000   ) 
                     (  -0.00000  -0.00000   ) 
                     (  -0.00000  -0.00000   ) 
                     (  -0.00000  -0.00000   ) 
                     (  -0.00000  -0.00000   ) 
                     (  -0.00000  -0.00000   ) 
                     (  -0.00000  -0.00000   ) 
  autoval = 0.2348E+01
     Irreps are as follows:

                     mode #  12
                     (  -0.00000   0.00000   ) 
                     (  -1.00000  -0.00000   ) 
                     (  -0.00000  -0.00000   ) 
                     (  -0.00000  -0.00000   ) 
                     (  -0.00000  -0.00000   ) 
                     (  -0.00000  -0.00000   ) 
                     (  -0.00000  -0.00000   ) 
                     (  -0.00000  -0.00000   ) 
                     (  -0.00000  -0.00000   ) 
                     (  -0.00000  -0.00000   ) 
                     (  -0.00000  -0.00000   ) 
                     (  -0.00000  -0.00000   ) 
  autoval = -.2002E+01
     Irreps are as follows:

                     mode #   1
                     (   0.00000  -0.00000   ) 
                     (   0.00000   0.00000   ) 
                     (  -0.57735  -0.00000   ) 
                     (   0.00000   0.00000   ) 
                     (  -0.57735   0.00000   ) 
                     (   0.00000   0.00000   ) 
                     (  -0.57735   0.00000   ) 
                     (   0.00000   0.00000   ) 
                     (   0.00000  -0.00000   ) 
                     (   0.00000  -0.00000   ) 
                     (   0.00000  -0.00000   ) 
                     (   0.00000  -0.00000   ) 
  autoval = -.4753E+00
     Irreps are as follows:

                     mode #   2
                     (   0.00000   0.00000   ) 
                     (  -0.70711  -0.00000   ) 
                     (  -0.00000   0.00000   ) 
                     (  -0.00000   0.00000   ) 
                     (   0.00000   0.00000   ) 
                     (  -0.70711   0.00000   ) 
                     (   0.00000   0.00000   ) 
                     (   0.00000  -0.00000   ) 
                     (  -0.00000  -0.00000   ) 
                     (  -0.00000  -0.00000   ) 
                     (  -0.00000  -0.00000   ) 
                     (  -0.00000  -0.00000   ) 
  autoval = -.4753E+00
     Irreps are as follows:

                     mode #   3
                     (  -0.00000   0.00000   ) 
                     (  -0.00000   0.00000   ) 
                     (  -0.00000  -0.00000   ) 
                     (  -0.70711  -0.00000   ) 
                     (  -0.00000  -0.00000   ) 
                     (  -0.00000  -0.00000   ) 
                     (  -0.00000   0.00000   ) 
                     (  -0.70711  -0.00000   ) 
                     (   0.00000  -0.00000   ) 
                     (   0.00000  -0.00000   ) 
                     (   0.00000  -0.00000   ) 
                     (   0.00000  -0.00000   ) 
  autoval = -.4753E+00
     Irreps are as follows:

                     mode #   4
                     (  -0.70711  -0.00000   ) 
                     (  -0.00000   0.00000   ) 
                     (  -0.00000   0.00000   ) 
                     (   0.00000   0.00000   ) 
                     (  -0.00000   0.00000   ) 
                     (  -0.00000   0.00000   ) 
                     (  -0.00000   0.00000   ) 
                     (  -0.00000   0.00000   ) 
                     (  -0.70711   0.00000   ) 
                     (  -0.00000  -0.00000   ) 
                     (  -0.00000  -0.00000   ) 
                     (  -0.00000  -0.00000   ) 
  autoval = 0.4516E-02
     Irreps are as follows:

                     mode #   5
                     (  -0.00000   0.00000   ) 
                     (  -0.00000   0.00000   ) 
                     (  -0.00000   0.00000   ) 
                     (  -0.00000   0.00000   ) 
                     (  -0.00000   0.00000   ) 
                     (  -0.00000   0.00000   ) 
                     (  -0.00000   0.00000   ) 
                     (  -0.00000   0.00000   ) 
                     (  -0.00000   0.00000   ) 
                     (  -1.00000  -0.00000   ) 
                     (  -0.00000  -0.00000   ) 
                     (  -0.00000  -0.00000   ) 
  autoval = 0.4516E-02
     Irreps are as follows:

                     mode #   6
                     (  -0.00000  -0.00000   ) 
                     (  -0.00000  -0.00000   ) 
                     (  -0.00000  -0.00000   ) 
                     (  -0.00000  -0.00000   ) 
                     (  -0.00000  -0.00000   ) 
                     (  -0.00000  -0.00000   ) 
                     (  -0.00000  -0.00000   ) 
                     (  -0.00000  -0.00000   ) 
                     (  -0.00000  -0.00000   ) 
                     (  -0.00000  -0.00000   ) 
                     (  -0.00000  -0.00000   ) 
                     (  -1.00000  -0.00000   ) 
  autoval = 0.4516E-02
     Irreps are as follows:

                     mode #   7
                     (  -0.00000   0.00000   ) 
                     (  -0.00000   0.00000   ) 
                     (  -0.00000   0.00000   ) 
                     (  -0.00000   0.00000   ) 
                     (  -0.00000   0.00000   ) 
                     (  -0.00000   0.00000   ) 
                     (  -0.00000   0.00000   ) 
                     (  -0.00000   0.00000   ) 
                     (  -0.00000   0.00000   ) 
                     (  -0.00000   0.00000   ) 
                     (  -1.00000  -0.00000   ) 
                     (  -0.00000  -0.00000   ) 
  autoval = 0.8979E+00
     Irreps are as follows:

                     mode #   8
                     (  -0.00000  -0.00000   ) 
                     (   0.00000  -0.00000   ) 
                     (  -0.71946  -0.00000   ) 
                     (   0.00000  -0.00000   ) 
                     (   0.69051  -0.04865   ) 
                     (  -0.00000   0.00000   ) 
                     (   0.02896   0.04865   ) 
                     (   0.00000  -0.00000   ) 
                     (  -0.00000   0.00000   ) 
                     (  -0.00000   0.00000   ) 
                     (  -0.00000   0.00000   ) 
                     (  -0.00000   0.00000   ) 
  autoval = 0.8979E+00
     Irreps are as follows:

                     mode #   9
                     (  -0.00000   0.00000   ) 
                     (   0.00000  -0.00000   ) 
                     (  -0.38605  -0.00000   ) 
                     (  -0.00000  -0.00000   ) 
                     (  -0.42342   0.09067   ) 
                     (   0.00000   0.00000   ) 
                     (   0.80947  -0.09067   ) 
                     (  -0.00000  -0.00000   ) 
                     (  -0.00000  -0.00000   ) 
                     (  -0.00000  -0.00000   ) 
                     (  -0.00000  -0.00000   ) 
                     (  -0.00000  -0.00000   ) 
  autoval = 0.1313E+01
     Irreps are as follows:

                     mode #  10
                     (  -0.00000  -0.00000   ) 
                     (  -0.70711  -0.00000   ) 
                     (  -0.00000  -0.00000   ) 
                     (   0.00000  -0.00000   ) 
                     (   0.00000   0.00000   ) 
                     (   0.70711  -0.00000   ) 
                     (   0.00000   0.00000   ) 
                     (  -0.00000   0.00000   ) 
                     (  -0.00000  -0.00000   ) 
                     (  -0.00000  -0.00000   ) 
                     (  -0.00000  -0.00000   ) 
                     (  -0.00000  -0.00000   ) 
  autoval = 0.1313E+01
     Irreps are as follows:

                     mode #  11
                     (  -0.70711  -0.00000   ) 
                     (   0.00000  -0.00000   ) 
                     (   0.00000  -0.00000   ) 
                     (   0.00000   0.00000   ) 
                     (   0.00000  -0.00000   ) 
                     (   0.00000  -0.00000   ) 
                     (   0.00000  -0.00000   ) 
                     (  -0.00000  -0.00000   ) 
                     (   0.70711  -0.00000   ) 
                     (   0.00000  -0.00000   ) 
                     (   0.00000  -0.00000   ) 
                     (   0.00000  -0.00000   ) 
  autoval = 0.1313E+01
     Irreps are as follows:

                     mode #  12
                     (  -0.00000   0.00000   ) 
                     (   0.00000  -0.00000   ) 
                     (  -0.00000   0.00000   ) 
                     (  -0.70711  -0.00000   ) 
                     (  -0.00000   0.00000   ) 
                     (  -0.00000   0.00000   ) 
                     (  -0.00000   0.00000   ) 
                     (   0.70711   0.00000   ) 
                     (  -0.00000  -0.00000   ) 
                     (  -0.00000  -0.00000   ) 
                     (  -0.00000  -0.00000   ) 
                     (  -0.00000  -0.00000   ) 

     Calculation of q =    0.0000000   0.0000000   0.0000000

     ReO3                                                                       

     bravais-lattice index     =            0
     lattice parameter (alat)  =       7.0264  a.u.
     unit-cell volume          =     346.8894 (a.u.)^3
     number of atoms/cell      =            4
     number of atomic types    =            2
     kinetic-energy cut-off    =     100.0000  Ry
     charge density cut-off    =     400.0000  Ry
     convergence threshold     =      1.0E-14
     beta                      =       0.5000
     number of iterations used =            4
     Exchange-correlation      = PZ ( 1  1  0  0 0 0)


     celldm(1)=    7.02636  celldm(2)=    0.00000  celldm(3)=    0.00000
     celldm(4)=    0.00000  celldm(5)=    0.00000  celldm(6)=    0.00000

     crystal axes: (cart. coord. in units of alat)
               a(1) = (  1.0000  0.0000  0.0000 )  
               a(2) = (  0.0000  1.0000  0.0000 )  
               a(3) = (  0.0000  0.0000  1.0000 )  

     reciprocal axes: (cart. coord. in units 2 pi/alat)
               b(1) = (  1.0000  0.0000  0.0000 )  
               b(2) = (  0.0000  1.0000  0.0000 )  
               b(3) = (  0.0000  0.0000  1.0000 )  


     Atoms inside the unit cell: 

     Cartesian axes

     site n.  atom      mass           positions (alat units)
        1     O   15.9994   tau(    1) = (    0.00000    0.00000    0.50000  )
        2     O   15.9994   tau(    2) = (    0.00000    0.50000    0.00000  )
        3     O   15.9994   tau(    3) = (    0.50000    0.00000    0.00000  )
        4     Re 186.2070   tau(    4) = (    0.00000    0.00000    0.00000  )

     Computing dynamical matrix for 
                    q = (   0.0000000   0.0000000   0.0000000 )

     49 Sym.Ops. (with q -> -q+G )

                                    s                        frac. trans.

      isym =  1     identity                                     

 cryst.   s( 1) = (     1          0          0      )
                  (     0          1          0      )
                  (     0          0          1      )

 cart.    s( 1) = (  1.0000000  0.0000000  0.0000000 )
                  (  0.0000000  1.0000000  0.0000000 )
                  (  0.0000000  0.0000000  1.0000000 )


      isym =  2     180 deg rotation - cart. axis [0,0,1]        

 cryst.   s( 2) = (    -1          0          0      )
                  (     0         -1          0      )
                  (     0          0          1      )

 cart.    s( 2) = ( -1.0000000  0.0000000  0.0000000 )
                  (  0.0000000 -1.0000000  0.0000000 )
                  (  0.0000000  0.0000000  1.0000000 )


      isym =  3     180 deg rotation - cart. axis [0,1,0]        

 cryst.   s( 3) = (    -1          0          0      )
                  (     0          1          0      )
                  (     0          0         -1      )

 cart.    s( 3) = ( -1.0000000  0.0000000  0.0000000 )
                  (  0.0000000  1.0000000  0.0000000 )
                  (  0.0000000  0.0000000 -1.0000000 )


      isym =  4     180 deg rotation - cart. axis [1,0,0]        

 cryst.   s( 4) = (     1          0          0      )
                  (     0         -1          0      )
                  (     0          0         -1      )

 cart.    s( 4) = (  1.0000000  0.0000000  0.0000000 )
                  (  0.0000000 -1.0000000  0.0000000 )
                  (  0.0000000  0.0000000 -1.0000000 )


      isym =  5     inversion                                    

 cryst.   s( 5) = (    -1          0          0      )
                  (     0         -1          0      )
                  (     0          0         -1      )

 cart.    s( 5) = ( -1.0000000  0.0000000  0.0000000 )
                  (  0.0000000 -1.0000000  0.0000000 )
                  (  0.0000000  0.0000000 -1.0000000 )


      isym =  6     inv. 180 deg rotation - cart. axis [0,0,1]   

 cryst.   s( 6) = (     1          0          0      )
                  (     0          1          0      )
                  (     0          0         -1      )

 cart.    s( 6) = (  1.0000000  0.0000000  0.0000000 )
                  (  0.0000000  1.0000000  0.0000000 )
                  (  0.0000000  0.0000000 -1.0000000 )


      isym =  7     inv. 180 deg rotation - cart. axis [0,1,0]   

 cryst.   s( 7) = (     1          0          0      )
                  (     0         -1          0      )
                  (     0          0          1      )

 cart.    s( 7) = (  1.0000000  0.0000000  0.0000000 )
                  (  0.0000000 -1.0000000  0.0000000 )
                  (  0.0000000  0.0000000  1.0000000 )


      isym =  8     inv. 180 deg rotation - cart. axis [1,0,0]   

 cryst.   s( 8) = (    -1          0          0      )
                  (     0          1          0      )
                  (     0          0          1      )

 cart.    s( 8) = ( -1.0000000  0.0000000  0.0000000 )
                  (  0.0000000  1.0000000  0.0000000 )
                  (  0.0000000  0.0000000  1.0000000 )


      isym =  9     inv. 180 deg rotation - cart. axis [1,1,0]   

 cryst.   s( 9) = (     0         -1          0      )
                  (    -1          0          0      )
                  (     0          0          1      )

 cart.    s( 9) = (  0.0000000 -1.0000000  0.0000000 )
                  ( -1.0000000  0.0000000  0.0000000 )
                  (  0.0000000  0.0000000  1.0000000 )


      isym = 10     inv. 180 deg rotation - cart. axis [1,-1,0]  

 cryst.   s(10) = (     0          1          0      )
                  (     1          0          0      )
                  (     0          0          1      )

 cart.    s(10) = (  0.0000000  1.0000000  0.0000000 )
                  (  1.0000000  0.0000000  0.0000000 )
                  (  0.0000000  0.0000000  1.0000000 )


      isym = 11     inv. 90 deg rotation - cart. axis [0,0,-1]   

 cryst.   s(11) = (     0          1          0      )
                  (    -1          0          0      )
                  (     0          0         -1      )

 cart.    s(11) = (  0.0000000 -1.0000000  0.0000000 )
                  (  1.0000000  0.0000000  0.0000000 )
                  (  0.0000000  0.0000000 -1.0000000 )


      isym = 12     inv. 90 deg rotation - cart. axis [0,0,1]    

 cryst.   s(12) = (     0         -1          0      )
                  (     1          0          0      )
                  (     0          0         -1      )

 cart.    s(12) = (  0.0000000  1.0000000  0.0000000 )
                  ( -1.0000000  0.0000000  0.0000000 )
                  (  0.0000000  0.0000000 -1.0000000 )


      isym = 13     180 deg rotation - cart. axis [1,1,0]        

 cryst.   s(13) = (     0          1          0      )
                  (     1          0          0      )
                  (     0          0         -1      )

 cart.    s(13) = (  0.0000000  1.0000000  0.0000000 )
                  (  1.0000000  0.0000000  0.0000000 )
                  (  0.0000000  0.0000000 -1.0000000 )


      isym = 14     180 deg rotation - cart. axis [1,-1,0]       

 cryst.   s(14) = (     0         -1          0      )
                  (    -1          0          0      )
                  (     0          0         -1      )

 cart.    s(14) = (  0.0000000 -1.0000000  0.0000000 )
                  ( -1.0000000  0.0000000  0.0000000 )
                  (  0.0000000  0.0000000 -1.0000000 )


      isym = 15     90 deg rotation - cart. axis [0,0,-1]        

 cryst.   s(15) = (     0         -1          0      )
                  (     1          0          0      )
                  (     0          0          1      )

 cart.    s(15) = (  0.0000000  1.0000000  0.0000000 )
                  ( -1.0000000  0.0000000  0.0000000 )
                  (  0.0000000  0.0000000  1.0000000 )


      isym = 16     90 deg rotation - cart. axis [0,0,1]         

 cryst.   s(16) = (     0          1          0      )
                  (    -1          0          0      )
                  (     0          0          1      )

 cart.    s(16) = (  0.0000000 -1.0000000  0.0000000 )
                  (  1.0000000  0.0000000  0.0000000 )
                  (  0.0000000  0.0000000  1.0000000 )


      isym = 17     120 deg rotation - cart. axis [-1,-1,-1]     

 cryst.   s(17) = (     0          0          1      )
                  (     1          0          0      )
                  (     0          1          0      )

 cart.    s(17) = (  0.0000000  1.0000000  0.0000000 )
                  (  0.0000000  0.0000000  1.0000000 )
                  (  1.0000000  0.0000000  0.0000000 )


      isym = 18     120 deg rotation - cart. axis [-1,1,1]       

 cryst.   s(18) = (     0          0         -1      )
                  (    -1          0          0      )
                  (     0          1          0      )

 cart.    s(18) = (  0.0000000 -1.0000000  0.0000000 )
                  (  0.0000000  0.0000000  1.0000000 )
                  ( -1.0000000  0.0000000  0.0000000 )


      isym = 19     120 deg rotation - cart. axis [1,1,-1]       

 cryst.   s(19) = (     0          0         -1      )
                  (     1          0          0      )
                  (     0         -1          0      )

 cart.    s(19) = (  0.0000000  1.0000000  0.0000000 )
                  (  0.0000000  0.0000000 -1.0000000 )
                  ( -1.0000000  0.0000000  0.0000000 )


      isym = 20     120 deg rotation - cart. axis [1,-1,1]       

 cryst.   s(20) = (     0          0          1      )
                  (    -1          0          0      )
                  (     0         -1          0      )

 cart.    s(20) = (  0.0000000 -1.0000000  0.0000000 )
                  (  0.0000000  0.0000000 -1.0000000 )
                  (  1.0000000  0.0000000  0.0000000 )


      isym = 21     120 deg rotation - cart. axis [1,1,1]        

 cryst.   s(21) = (     0          1          0      )
                  (     0          0          1      )
                  (     1          0          0      )

 cart.    s(21) = (  0.0000000  0.0000000  1.0000000 )
                  (  1.0000000  0.0000000  0.0000000 )
                  (  0.0000000  1.0000000  0.0000000 )


      isym = 22     120 deg rotation - cart. axis [-1,1,-1]      

 cryst.   s(22) = (     0         -1          0      )
                  (     0          0         -1      )
                  (     1          0          0      )

 cart.    s(22) = (  0.0000000  0.0000000  1.0000000 )
                  ( -1.0000000  0.0000000  0.0000000 )
                  (  0.0000000 -1.0000000  0.0000000 )


      isym = 23     120 deg rotation - cart. axis [1,-1,-1]      

 cryst.   s(23) = (     0         -1          0      )
                  (     0          0          1      )
                  (    -1          0          0      )

 cart.    s(23) = (  0.0000000  0.0000000 -1.0000000 )
                  ( -1.0000000  0.0000000  0.0000000 )
                  (  0.0000000  1.0000000  0.0000000 )


      isym = 24     120 deg rotation - cart. axis [-1,-1,1]      

 cryst.   s(24) = (     0          1          0      )
                  (     0          0         -1      )
                  (    -1          0          0      )

 cart.    s(24) = (  0.0000000  0.0000000 -1.0000000 )
                  (  1.0000000  0.0000000  0.0000000 )
                  (  0.0000000 -1.0000000  0.0000000 )


      isym = 25     180 deg rotation - cart. axis [1,0,1]        

 cryst.   s(25) = (     0          0          1      )
                  (     0         -1          0      )
                  (     1          0          0      )

 cart.    s(25) = (  0.0000000  0.0000000  1.0000000 )
                  (  0.0000000 -1.0000000  0.0000000 )
                  (  1.0000000  0.0000000  0.0000000 )


      isym = 26     180 deg rotation - cart. axis [-1,0,1]       

 cryst.   s(26) = (     0          0         -1      )
                  (     0         -1          0      )
                  (    -1          0          0      )

 cart.    s(26) = (  0.0000000  0.0000000 -1.0000000 )
                  (  0.0000000 -1.0000000  0.0000000 )
                  ( -1.0000000  0.0000000  0.0000000 )


      isym = 27     90 deg rotation - cart. axis [0,1,0]         

 cryst.   s(27) = (     0          0         -1      )
                  (     0          1          0      )
                  (     1          0          0      )

 cart.    s(27) = (  0.0000000  0.0000000  1.0000000 )
                  (  0.0000000  1.0000000  0.0000000 )
                  ( -1.0000000  0.0000000  0.0000000 )


      isym = 28     90 deg rotation - cart. axis [0,-1,0]        

 cryst.   s(28) = (     0          0          1      )
                  (     0          1          0      )
                  (    -1          0          0      )

 cart.    s(28) = (  0.0000000  0.0000000 -1.0000000 )
                  (  0.0000000  1.0000000  0.0000000 )
                  (  1.0000000  0.0000000  0.0000000 )


      isym = 29     180 deg rotation - cart. axis [0,1,1]        

 cryst.   s(29) = (    -1          0          0      )
                  (     0          0          1      )
                  (     0          1          0      )

 cart.    s(29) = ( -1.0000000  0.0000000  0.0000000 )
                  (  0.0000000  0.0000000  1.0000000 )
                  (  0.0000000  1.0000000  0.0000000 )


      isym = 30     180 deg rotation - cart. axis [0,1,-1]       

 cryst.   s(30) = (    -1          0          0      )
                  (     0          0         -1      )
                  (     0         -1          0      )

 cart.    s(30) = ( -1.0000000  0.0000000  0.0000000 )
                  (  0.0000000  0.0000000 -1.0000000 )
                  (  0.0000000 -1.0000000  0.0000000 )


      isym = 31     90 deg rotation - cart. axis [-1,0,0]        

 cryst.   s(31) = (     1          0          0      )
                  (     0          0         -1      )
                  (     0          1          0      )

 cart.    s(31) = (  1.0000000  0.0000000  0.0000000 )
                  (  0.0000000  0.0000000  1.0000000 )
                  (  0.0000000 -1.0000000  0.0000000 )


      isym = 32     90 deg rotation - cart. axis [1,0,0]         

 cryst.   s(32) = (     1          0          0      )
                  (     0          0          1      )
                  (     0         -1          0      )

 cart.    s(32) = (  1.0000000  0.0000000  0.0000000 )
                  (  0.0000000  0.0000000 -1.0000000 )
                  (  0.0000000  1.0000000  0.0000000 )


      isym = 33     inv. 180 deg rotation - cart. axis [1,0,1]   

 cryst.   s(33) = (     0          0         -1      )
                  (     0          1          0      )
                  (    -1          0          0      )

 cart.    s(33) = (  0.0000000  0.0000000 -1.0000000 )
                  (  0.0000000  1.0000000  0.0000000 )
                  ( -1.0000000  0.0000000  0.0000000 )


      isym = 34     inv. 180 deg rotation - cart. axis [-1,0,1]  

 cryst.   s(34) = (     0          0          1      )
                  (     0          1          0      )
                  (     1          0          0      )

 cart.    s(34) = (  0.0000000  0.0000000  1.0000000 )
                  (  0.0000000  1.0000000  0.0000000 )
                  (  1.0000000  0.0000000  0.0000000 )


      isym = 35     inv. 90 deg rotation - cart. axis [0,1,0]    

 cryst.   s(35) = (     0          0          1      )
                  (     0         -1          0      )
                  (    -1          0          0      )

 cart.    s(35) = (  0.0000000  0.0000000 -1.0000000 )
                  (  0.0000000 -1.0000000  0.0000000 )
                  (  1.0000000  0.0000000  0.0000000 )


      isym = 36     inv. 90 deg rotation - cart. axis [0,-1,0]   

 cryst.   s(36) = (     0          0         -1      )
                  (     0         -1          0      )
                  (     1          0          0      )

 cart.    s(36) = (  0.0000000  0.0000000  1.0000000 )
                  (  0.0000000 -1.0000000  0.0000000 )
                  ( -1.0000000  0.0000000  0.0000000 )


      isym = 37     inv. 180 deg rotation - cart. axis [0,1,1]   

 cryst.   s(37) = (     1          0          0      )
                  (     0          0         -1      )
                  (     0         -1          0      )

 cart.    s(37) = (  1.0000000  0.0000000  0.0000000 )
                  (  0.0000000  0.0000000 -1.0000000 )
                  (  0.0000000 -1.0000000  0.0000000 )


      isym = 38     inv. 180 deg rotation - cart. axis [0,1,-1]  

 cryst.   s(38) = (     1          0          0      )
                  (     0          0          1      )
                  (     0          1          0      )

 cart.    s(38) = (  1.0000000  0.0000000  0.0000000 )
                  (  0.0000000  0.0000000  1.0000000 )
                  (  0.0000000  1.0000000  0.0000000 )


      isym = 39     inv. 90 deg rotation - cart. axis [-1,0,0]   

 cryst.   s(39) = (    -1          0          0      )
                  (     0          0          1      )
                  (     0         -1          0      )

 cart.    s(39) = ( -1.0000000  0.0000000  0.0000000 )
                  (  0.0000000  0.0000000 -1.0000000 )
                  (  0.0000000  1.0000000  0.0000000 )


      isym = 40     inv. 90 deg rotation - cart. axis [1,0,0]    

 cryst.   s(40) = (    -1          0          0      )
                  (     0          0         -1      )
                  (     0          1          0      )

 cart.    s(40) = ( -1.0000000  0.0000000  0.0000000 )
                  (  0.0000000  0.0000000  1.0000000 )
                  (  0.0000000 -1.0000000  0.0000000 )


      isym = 41     inv. 120 deg rotation - cart. axis [-1,-1,-1]

 cryst.   s(41) = (     0          0         -1      )
                  (    -1          0          0      )
                  (     0         -1          0      )

 cart.    s(41) = (  0.0000000 -1.0000000  0.0000000 )
                  (  0.0000000  0.0000000 -1.0000000 )
                  ( -1.0000000  0.0000000  0.0000000 )


      isym = 42     inv. 120 deg rotation - cart. axis [-1,1,1]  

 cryst.   s(42) = (     0          0          1      )
                  (     1          0          0      )
                  (     0         -1          0      )

 cart.    s(42) = (  0.0000000  1.0000000  0.0000000 )
                  (  0.0000000  0.0000000 -1.0000000 )
                  (  1.0000000  0.0000000  0.0000000 )


      isym = 43     inv. 120 deg rotation - cart. axis [1,1,-1]  

 cryst.   s(43) = (     0          0          1      )
                  (    -1          0          0      )
                  (     0          1          0      )

 cart.    s(43) = (  0.0000000 -1.0000000  0.0000000 )
                  (  0.0000000  0.0000000  1.0000000 )
                  (  1.0000000  0.0000000  0.0000000 )


      isym = 44     inv. 120 deg rotation - cart. axis [1,-1,1]  

 cryst.   s(44) = (     0          0         -1      )
                  (     1          0          0      )
                  (     0          1          0      )

 cart.    s(44) = (  0.0000000  1.0000000  0.0000000 )
                  (  0.0000000  0.0000000  1.0000000 )
                  ( -1.0000000  0.0000000  0.0000000 )


      isym = 45     inv. 120 deg rotation - cart. axis [1,1,1]   

 cryst.   s(45) = (     0         -1          0      )
                  (     0          0         -1      )
                  (    -1          0          0      )

 cart.    s(45) = (  0.0000000  0.0000000 -1.0000000 )
                  ( -1.0000000  0.0000000  0.0000000 )
                  (  0.0000000 -1.0000000  0.0000000 )


      isym = 46     inv. 120 deg rotation - cart. axis [-1,1,-1] 

 cryst.   s(46) = (     0          1          0      )
                  (     0          0          1      )
                  (    -1          0          0      )

 cart.    s(46) = (  0.0000000  0.0000000 -1.0000000 )
                  (  1.0000000  0.0000000  0.0000000 )
                  (  0.0000000  1.0000000  0.0000000 )


      isym = 47     inv. 120 deg rotation - cart. axis [1,-1,-1] 

 cryst.   s(47) = (     0          1          0      )
                  (     0          0         -1      )
                  (     1          0          0      )

 cart.    s(47) = (  0.0000000  0.0000000  1.0000000 )
                  (  1.0000000  0.0000000  0.0000000 )
                  (  0.0000000 -1.0000000  0.0000000 )


      isym = 48     inv. 120 deg rotation - cart. axis [-1,-1,1] 

 cryst.   s(48) = (     0         -1          0      )
                  (     0          0          1      )
                  (     1          0          0      )

 cart.    s(48) = (  0.0000000  0.0000000  1.0000000 )
                  ( -1.0000000  0.0000000  0.0000000 )
                  (  0.0000000  1.0000000  0.0000000 )


     This transformation sends q -> -q+G

      isym = 49     identity                                     

 cryst.   s(49) = (     1          0          0      )
                  (     0          1          0      )
                  (     0          0          1      )

 cart.    s(49) = (  1.0000000  0.0000000  0.0000000 )
                  (  0.0000000  1.0000000  0.0000000 )
                  (  0.0000000  0.0000000  1.0000000 )


     G cutoff =  500.2199  (   5863 G-vectors)     FFT grid: ( 45, 45, 45)

     number of k points=    56  mp smearing, width (Ry)=  0.0100
                       cart. coord. in units 2pi/alat
        k(    1) = (   0.0416667   0.0416667   0.0416667), wk =   0.0092593
        k(    2) = (   0.0416667   0.0416667   0.1250000), wk =   0.0277778
        k(    3) = (   0.0416667   0.0416667   0.2083333), wk =   0.0277778
        k(    4) = (   0.0416667   0.0416667   0.2916667), wk =   0.0277778
        k(    5) = (   0.0416667   0.0416667   0.3750000), wk =   0.0277778
        k(    6) = (   0.0416667   0.0416667   0.4583333), wk =   0.0277778
        k(    7) = (   0.0416667   0.1250000   0.1250000), wk =   0.0277778
        k(    8) = (   0.0416667   0.1250000   0.2083333), wk =   0.0555556
        k(    9) = (   0.0416667   0.1250000   0.2916667), wk =   0.0555556
        k(   10) = (   0.0416667   0.1250000   0.3750000), wk =   0.0555556
        k(   11) = (   0.0416667   0.1250000   0.4583333), wk =   0.0555556
        k(   12) = (   0.0416667   0.2083333   0.2083333), wk =   0.0277778
        k(   13) = (   0.0416667   0.2083333   0.2916667), wk =   0.0555556
        k(   14) = (   0.0416667   0.2083333   0.3750000), wk =   0.0555556
        k(   15) = (   0.0416667   0.2083333   0.4583333), wk =   0.0555556
        k(   16) = (   0.0416667   0.2916667   0.2916667), wk =   0.0277778
        k(   17) = (   0.0416667   0.2916667   0.3750000), wk =   0.0555556
        k(   18) = (   0.0416667   0.2916667   0.4583333), wk =   0.0555556
        k(   19) = (   0.0416667   0.3750000   0.3750000), wk =   0.0277778
        k(   20) = (   0.0416667   0.3750000   0.4583333), wk =   0.0555556
        k(   21) = (   0.0416667   0.4583333   0.4583333), wk =   0.0277778
        k(   22) = (   0.1250000   0.1250000   0.1250000), wk =   0.0092593
        k(   23) = (   0.1250000   0.1250000   0.2083333), wk =   0.0277778
        k(   24) = (   0.1250000   0.1250000   0.2916667), wk =   0.0277778
        k(   25) = (   0.1250000   0.1250000   0.3750000), wk =   0.0277778
        k(   26) = (   0.1250000   0.1250000   0.4583333), wk =   0.0277778
        k(   27) = (   0.1250000   0.2083333   0.2083333), wk =   0.0277778
        k(   28) = (   0.1250000   0.2083333   0.2916667), wk =   0.0555556
        k(   29) = (   0.1250000   0.2083333   0.3750000), wk =   0.0555556
        k(   30) = (   0.1250000   0.2083333   0.4583333), wk =   0.0555556
        k(   31) = (   0.1250000   0.2916667   0.2916667), wk =   0.0277778
        k(   32) = (   0.1250000   0.2916667   0.3750000), wk =   0.0555556
        k(   33) = (   0.1250000   0.2916667   0.4583333), wk =   0.0555556
        k(   34) = (   0.1250000   0.3750000   0.3750000), wk =   0.0277778
        k(   35) = (   0.1250000   0.3750000   0.4583333), wk =   0.0555556
        k(   36) = (   0.1250000   0.4583333   0.4583333), wk =   0.0277778
        k(   37) = (   0.2083333   0.2083333   0.2083333), wk =   0.0092593
        k(   38) = (   0.2083333   0.2083333   0.2916667), wk =   0.0277778
        k(   39) = (   0.2083333   0.2083333   0.3750000), wk =   0.0277778
        k(   40) = (   0.2083333   0.2083333   0.4583333), wk =   0.0277778
        k(   41) = (   0.2083333   0.2916667   0.2916667), wk =   0.0277778
        k(   42) = (   0.2083333   0.2916667   0.3750000), wk =   0.0555556
        k(   43) = (   0.2083333   0.2916667   0.4583333), wk =   0.0555556
        k(   44) = (   0.2083333   0.3750000   0.3750000), wk =   0.0277778
        k(   45) = (   0.2083333   0.3750000   0.4583333), wk =   0.0555556
        k(   46) = (   0.2083333   0.4583333   0.4583333), wk =   0.0277778
        k(   47) = (   0.2916667   0.2916667   0.2916667), wk =   0.0092593
        k(   48) = (   0.2916667   0.2916667   0.3750000), wk =   0.0277778
        k(   49) = (   0.2916667   0.2916667   0.4583333), wk =   0.0277778
        k(   50) = (   0.2916667   0.3750000   0.3750000), wk =   0.0277778
        k(   51) = (   0.2916667   0.3750000   0.4583333), wk =   0.0555556
        k(   52) = (   0.2916667   0.4583333   0.4583333), wk =   0.0277778
        k(   53) = (   0.3750000   0.3750000   0.3750000), wk =   0.0092593
        k(   54) = (   0.3750000   0.3750000   0.4583333), wk =   0.0277778
        k(   55) = (   0.3750000   0.4583333   0.4583333), wk =   0.0277778
        k(   56) = (   0.4583333   0.4583333   0.4583333), wk =   0.0092593

                       cryst. coord.
        k(    1) = (   0.0416667   0.0416667   0.0416667), wk =   0.0092593
        k(    2) = (   0.0416667   0.0416667   0.1250000), wk =   0.0277778
        k(    3) = (   0.0416667   0.0416667   0.2083333), wk =   0.0277778
        k(    4) = (   0.0416667   0.0416667   0.2916667), wk =   0.0277778
        k(    5) = (   0.0416667   0.0416667   0.3750000), wk =   0.0277778
        k(    6) = (   0.0416667   0.0416667   0.4583333), wk =   0.0277778
        k(    7) = (   0.0416667   0.1250000   0.1250000), wk =   0.0277778
        k(    8) = (   0.0416667   0.1250000   0.2083333), wk =   0.0555556
        k(    9) = (   0.0416667   0.1250000   0.2916667), wk =   0.0555556
        k(   10) = (   0.0416667   0.1250000   0.3750000), wk =   0.0555556
        k(   11) = (   0.0416667   0.1250000   0.4583333), wk =   0.0555556
        k(   12) = (   0.0416667   0.2083333   0.2083333), wk =   0.0277778
        k(   13) = (   0.0416667   0.2083333   0.2916667), wk =   0.0555556
        k(   14) = (   0.0416667   0.2083333   0.3750000), wk =   0.0555556
        k(   15) = (   0.0416667   0.2083333   0.4583333), wk =   0.0555556
        k(   16) = (   0.0416667   0.2916667   0.2916667), wk =   0.0277778
        k(   17) = (   0.0416667   0.2916667   0.3750000), wk =   0.0555556
        k(   18) = (   0.0416667   0.2916667   0.4583333), wk =   0.0555556
        k(   19) = (   0.0416667   0.3750000   0.3750000), wk =   0.0277778
        k(   20) = (   0.0416667   0.3750000   0.4583333), wk =   0.0555556
        k(   21) = (   0.0416667   0.4583333   0.4583333), wk =   0.0277778
        k(   22) = (   0.1250000   0.1250000   0.1250000), wk =   0.0092593
        k(   23) = (   0.1250000   0.1250000   0.2083333), wk =   0.0277778
        k(   24) = (   0.1250000   0.1250000   0.2916667), wk =   0.0277778
        k(   25) = (   0.1250000   0.1250000   0.3750000), wk =   0.0277778
        k(   26) = (   0.1250000   0.1250000   0.4583333), wk =   0.0277778
        k(   27) = (   0.1250000   0.2083333   0.2083333), wk =   0.0277778
        k(   28) = (   0.1250000   0.2083333   0.2916667), wk =   0.0555556
        k(   29) = (   0.1250000   0.2083333   0.3750000), wk =   0.0555556
        k(   30) = (   0.1250000   0.2083333   0.4583333), wk =   0.0555556
        k(   31) = (   0.1250000   0.2916667   0.2916667), wk =   0.0277778
        k(   32) = (   0.1250000   0.2916667   0.3750000), wk =   0.0555556
        k(   33) = (   0.1250000   0.2916667   0.4583333), wk =   0.0555556
        k(   34) = (   0.1250000   0.3750000   0.3750000), wk =   0.0277778
        k(   35) = (   0.1250000   0.3750000   0.4583333), wk =   0.0555556
        k(   36) = (   0.1250000   0.4583333   0.4583333), wk =   0.0277778
        k(   37) = (   0.2083333   0.2083333   0.2083333), wk =   0.0092593
        k(   38) = (   0.2083333   0.2083333   0.2916667), wk =   0.0277778
        k(   39) = (   0.2083333   0.2083333   0.3750000), wk =   0.0277778
        k(   40) = (   0.2083333   0.2083333   0.4583333), wk =   0.0277778
        k(   41) = (   0.2083333   0.2916667   0.2916667), wk =   0.0277778
        k(   42) = (   0.2083333   0.2916667   0.3750000), wk =   0.0555556
        k(   43) = (   0.2083333   0.2916667   0.4583333), wk =   0.0555556
        k(   44) = (   0.2083333   0.3750000   0.3750000), wk =   0.0277778
        k(   45) = (   0.2083333   0.3750000   0.4583333), wk =   0.0555556
        k(   46) = (   0.2083333   0.4583333   0.4583333), wk =   0.0277778
        k(   47) = (   0.2916667   0.2916667   0.2916667), wk =   0.0092593
        k(   48) = (   0.2916667   0.2916667   0.3750000), wk =   0.0277778
        k(   49) = (   0.2916667   0.2916667   0.4583333), wk =   0.0277778
        k(   50) = (   0.2916667   0.3750000   0.3750000), wk =   0.0277778
        k(   51) = (   0.2916667   0.3750000   0.4583333), wk =   0.0555556
        k(   52) = (   0.2916667   0.4583333   0.4583333), wk =   0.0277778
        k(   53) = (   0.3750000   0.3750000   0.3750000), wk =   0.0092593
        k(   54) = (   0.3750000   0.3750000   0.4583333), wk =   0.0277778
        k(   55) = (   0.3750000   0.4583333   0.4583333), wk =   0.0277778
        k(   56) = (   0.4583333   0.4583333   0.4583333), wk =   0.0092593

     PseudoPot. # 1 for Re read from file:
     /public3/home/sc55341/softwares/pseudopotentials/PSLibrary/PAW_PZ_SR/Re.pz-spn-kjpaw_psl.1.0.0.UPF
     MD5 check sum: e20c4421fc7df49efa73a723ca3fc2a4
     Pseudo is Projector augmented-wave + core cor, Zval = 15.0
     Generated using "atomic" code by A. Dal Corso v.6.2.2
     Shape of augmentation charge: PSQ
     Using radial grid of 1275 points,  6 beta functions with: 
                l(1) =   0
                l(2) =   0
                l(3) =   1
                l(4) =   1
                l(5) =   2
                l(6) =   2
     Q(r) pseudized with 0 coefficients 


     PseudoPot. # 2 for O  read from file:
     /public3/home/sc55341/softwares/pseudopotentials/PSLibrary/PAW_PZ_SR/O.pz-n-kjpaw_psl.0.1.UPF
     MD5 check sum: 6b8961753bc530cd482b40fd8ffb4c91
     Pseudo is Projector augmented-wave + core cor, Zval =  6.0
     Generated using "atomic" code by A. Dal Corso v.5.0.2 svn rev. 9415
     Shape of augmentation charge: BESSEL
     Using radial grid of 1095 points,  4 beta functions with: 
                l(1) =   0
                l(2) =   0
                l(3) =   1
                l(4) =   1
     Q(r) pseudized with 0 coefficients 



     Atomic displacements:
     There are   4 irreducible representations

     Representation     1      3 modes -  To be done
     Irreps are as follows:

     mode #   1              mode #   2              mode #   3
     (  -0.18250  -0.00000 ) (  -0.07473  -0.00000 ) (  -0.03060  -0.00000 ) 
     (   0.07359   0.00000 ) (  -0.18505  -0.00000 ) (   0.01300  -0.00000 ) 
     (   0.15980   0.00000 ) (  -0.00291  -0.00000 ) (  -0.94594  -0.00000 ) 
     (  -0.18250  -0.00000 ) (  -0.07473  -0.00000 ) (  -0.03060  -0.00000 ) 
     (   0.35376   0.00000 ) (  -0.88955  -0.00000 ) (   0.06250  -0.00000 ) 
     (   0.03324   0.00000 ) (  -0.00061  -0.00000 ) (  -0.19678  -0.00000 ) 
     (  -0.87730  -0.00000 ) (  -0.35923  -0.00000 ) (  -0.14710  -0.00000 ) 
     (   0.07359   0.00000 ) (  -0.18505  -0.00000 ) (   0.01300  -0.00000 ) 
     (   0.03324   0.00000 ) (  -0.00061  -0.00000 ) (  -0.19678  -0.00000 ) 
     (  -0.00000   0.00000 ) (  -0.00000   0.00000 ) (  -0.00000  -0.00000 ) 
     (  -0.00000   0.00000 ) (  -0.00000   0.00000 ) (  -0.00000  -0.00000 ) 
     (  -0.00000   0.00000 ) (  -0.00000   0.00000 ) (  -0.00000  -0.00000 ) 

     Representation     2      3 modes -  To be done
     Irreps are as follows:

     mode #   4              mode #   5              mode #   6
     (  -0.00530  -0.00000 ) (  -0.03426  -0.00000 ) (  -0.70626  -0.00000 ) 
     (   0.13477  -0.00000 ) (   0.69328   0.00000 ) (  -0.03464  -0.00000 ) 
     (  -0.00000  -0.00000 ) (   0.00000   0.00000 ) (  -0.00000  -0.00000 ) 
     (   0.00530  -0.00000 ) (   0.03426   0.00000 ) (   0.70626  -0.00000 ) 
     (   0.00000  -0.00000 ) (   0.00000   0.00000 ) (   0.00000  -0.00000 ) 
     (   0.69412  -0.00000 ) (  -0.13487  -0.00000 ) (   0.00133  -0.00000 ) 
     (   0.00000  -0.00000 ) (  -0.00000  -0.00000 ) (  -0.00000  -0.00000 ) 
     (  -0.13477  -0.00000 ) (  -0.69328  -0.00000 ) (   0.03464  -0.00000 ) 
     (  -0.69412  -0.00000 ) (   0.13487   0.00000 ) (  -0.00133  -0.00000 ) 
     (  -0.00000  -0.00000 ) (  -0.00000   0.00000 ) (  -0.00000  -0.00000 ) 
     (  -0.00000  -0.00000 ) (  -0.00000   0.00000 ) (  -0.00000  -0.00000 ) 
     (  -0.00000  -0.00000 ) (  -0.00000   0.00000 ) (  -0.00000  -0.00000 ) 

     Representation     3      3 modes -  To be done
     Irreps are as follows:

     mode #   7              mode #   8              mode #   9
     (  -0.00000  -0.00000 ) (  -0.00000   0.00000 ) (  -0.00000   0.00000 ) 
     (  -0.00000  -0.00000 ) (  -0.00000   0.00000 ) (  -0.00000   0.00000 ) 
     (  -0.00000  -0.00000 ) (  -0.00000   0.00000 ) (  -0.00000   0.00000 ) 
     (  -0.00000  -0.00000 ) (  -0.00000   0.00000 ) (  -0.00000   0.00000 ) 
     (  -0.00000  -0.00000 ) (  -0.00000   0.00000 ) (  -0.00000   0.00000 ) 
     (  -0.00000  -0.00000 ) (  -0.00000   0.00000 ) (  -0.00000   0.00000 ) 
     (  -0.00000  -0.00000 ) (  -0.00000   0.00000 ) (  -0.00000   0.00000 ) 
     (  -0.00000  -0.00000 ) (  -0.00000   0.00000 ) (  -0.00000   0.00000 ) 
     (  -0.00000  -0.00000 ) (  -0.00000   0.00000 ) (  -0.00000   0.00000 ) 
     (  -0.00000  -0.00000 ) (  -0.00000   0.00000 ) (  -1.00000  -0.00000 ) 
     (  -0.00000  -0.00000 ) (  -1.00000  -0.00000 ) (  -0.00000  -0.00000 ) 
     (  -1.00000  -0.00000 ) (  -0.00000  -0.00000 ) (  -0.00000  -0.00000 ) 

     Representation     4      3 modes -  To be done
     Irreps are as follows:

     mode #  10              mode #  11              mode #  12
     (  -0.00000  -0.00000 ) (  -0.00222  -0.00000 ) (  -0.67836  -0.00000 ) 
     (   0.00000   0.00000 ) (   0.67836   0.00000 ) (  -0.00222  -0.00000 ) 
     (  -0.28223  -0.00000 ) (  -0.00000  -0.00000 ) (  -0.00000  -0.00000 ) 
     (  -0.00000  -0.00000 ) (  -0.00222  -0.00000 ) (  -0.67836  -0.00000 ) 
     (  -0.00000  -0.00000 ) (  -0.28223  -0.00000 ) (   0.00092   0.00000 ) 
     (   0.67836   0.00000 ) (   0.00000   0.00000 ) (  -0.00000  -0.00000 ) 
     (   0.00000   0.00000 ) (   0.00092   0.00000 ) (   0.28223   0.00000 ) 
     (   0.00000  -0.00000 ) (   0.67836   0.00000 ) (  -0.00222  -0.00000 ) 
     (   0.67836   0.00000 ) (  -0.00000  -0.00000 ) (  -0.00000  -0.00000 ) 
     (  -0.00000   0.00000 ) (  -0.00000   0.00000 ) (  -0.00000   0.00000 ) 
     (  -0.00000   0.00000 ) (  -0.00000   0.00000 ) (  -0.00000   0.00000 ) 
     (  -0.00000   0.00000 ) (  -0.00000   0.00000 ) (  -0.00000   0.00000 ) 



     Alpha used in Ewald sum =   2.8000
     PHONON       :      3.00s CPU      3.64s WALL



     Representation #  1 modes #   1  2  3

     Self-consistent Calculation

     Pert. #  1: Fermi energy shift (Ry) =     1.0771E-26     1.9592E-38
     Pert. #  2: Fermi energy shift (Ry) =     4.3082E-27     3.1347E-38
     Pert. #  3: Fermi energy shift (Ry) =    -2.5311E-26    -7.7387E-38

      iter #   1 total cpu time :     5.8 secs   av.it.:   7.9
      thresh= 1.000E-02 alpha_mix =  0.500 |ddv_scf|^2 =  3.662E-07

     Pert. #  1: Fermi energy shift (Ry) =     2.1541E-27     0.0000E+00
     Pert. #  2: Fermi energy shift (Ry) =     0.0000E+00    -1.2245E-40
     Pert. #  3: Fermi energy shift (Ry) =     7.0009E-27    -1.5306E-41

      iter #   2 total cpu time :     8.7 secs   av.it.:  16.4
      thresh= 6.051E-05 alpha_mix =  0.500 |ddv_scf|^2 =  8.423E-09

     Pert. #  1: Fermi energy shift (Ry) =     1.4002E-26    -5.3571E-41
     Pert. #  2: Fermi energy shift (Ry) =     1.2925E-26     0.0000E+00
     Pert. #  3: Fermi energy shift (Ry) =     9.9628E-27     4.4005E-41

      iter #   3 total cpu time :    11.6 secs   av.it.:  17.0
      thresh= 9.178E-06 alpha_mix =  0.500 |ddv_scf|^2 =  5.677E-10

     Pert. #  1: Fermi energy shift (Ry) =    -1.6156E-27    -7.6530E-42
     Pert. #  2: Fermi energy shift (Ry) =    -1.0771E-27     0.0000E+00
     Pert. #  3: Fermi energy shift (Ry) =     0.0000E+00    -2.2959E-41

      iter #   4 total cpu time :    14.6 secs   av.it.:  17.4
      thresh= 2.383E-06 alpha_mix =  0.500 |ddv_scf|^2 =  5.038E-12

     Pert. #  1: Fermi energy shift (Ry) =     4.0390E-28     3.8265E-42
     Pert. #  2: Fermi energy shift (Ry) =    -5.3853E-28    -1.5306E-41
     Pert. #  3: Fermi energy shift (Ry) =    -5.4189E-27     6.6963E-42

      iter #   5 total cpu time :    17.5 secs   av.it.:  17.3
      thresh= 2.244E-07 alpha_mix =  0.500 |ddv_scf|^2 =  3.527E-13

     Pert. #  1: Fermi energy shift (Ry) =    -2.2887E-27     1.9132E-42
     Pert. #  2: Fermi energy shift (Ry) =    -1.0771E-27     3.8265E-42
     Pert. #  3: Fermi energy shift (Ry) =    -5.0487E-27     4.7831E-43

      iter #   6 total cpu time :    20.5 secs   av.it.:  16.5
      thresh= 5.939E-08 alpha_mix =  0.500 |ddv_scf|^2 =  8.330E-15

     End of self-consistent calculation

     Convergence has been achieved 


     Representation #  2 modes #   4  5  6

     Self-consistent Calculation

     Pert. #  1: Fermi energy shift (Ry) =    -1.9301E-24    -1.9592E-39
     Pert. #  2: Fermi energy shift (Ry) =     0.0000E+00    -4.4081E-39
     Pert. #  3: Fermi energy shift (Ry) =     1.3269E-24    -2.9081E-40

      iter #   1 total cpu time :    23.0 secs   av.it.:   7.0
      thresh= 1.000E-02 alpha_mix =  0.500 |ddv_scf|^2 =  2.071E-07

     Pert. #  1: Fermi energy shift (Ry) =     6.8932E-26    -3.0612E-41
     Pert. #  2: Fermi energy shift (Ry) =    -1.7233E-26     1.5306E-41
     Pert. #  3: Fermi energy shift (Ry) =    -1.0771E-25     1.2436E-41

      iter #   2 total cpu time :    25.8 secs   av.it.:  15.2
      thresh= 4.551E-05 alpha_mix =  0.500 |ddv_scf|^2 =  1.155E-08

     Pert. #  1: Fermi energy shift (Ry) =    -6.8932E-26    -1.5306E-41
     Pert. #  2: Fermi energy shift (Ry) =    -8.6165E-27     2.8699E-41
     Pert. #  3: Fermi energy shift (Ry) =     1.5079E-26     2.1524E-41

      iter #   3 total cpu time :    28.6 secs   av.it.:  16.2
      thresh= 1.075E-05 alpha_mix =  0.500 |ddv_scf|^2 =  1.741E-11

     Pert. #  1: Fermi energy shift (Ry) =     1.7233E-26     0.0000E+00
     Pert. #  2: Fermi energy shift (Ry) =    -2.1541E-27     9.5662E-43
     Pert. #  3: Fermi energy shift (Ry) =    -1.6156E-27     1.6292E-42

      iter #   4 total cpu time :    31.7 secs   av.it.:  16.7
      thresh= 4.172E-07 alpha_mix =  0.500 |ddv_scf|^2 =  6.002E-13

     Pert. #  1: Fermi energy shift (Ry) =     8.6165E-27     1.1958E-42
     Pert. #  2: Fermi energy shift (Ry) =    -8.6165E-27     5.9789E-43
     Pert. #  3: Fermi energy shift (Ry) =     1.2386E-26     1.6292E-42

      iter #   5 total cpu time :    34.4 secs   av.it.:  13.0
      thresh= 7.747E-08 alpha_mix =  0.500 |ddv_scf|^2 =  5.685E-14

     Pert. #  1: Fermi energy shift (Ry) =     3.4466E-26     1.1958E-42
     Pert. #  2: Fermi energy shift (Ry) =    -1.9387E-26     5.9789E-43
     Pert. #  3: Fermi energy shift (Ry) =     7.5394E-27     1.6292E-42

      iter #   6 total cpu time :    37.6 secs   av.it.:  16.3
      thresh= 2.384E-08 alpha_mix =  0.500 |ddv_scf|^2 =  9.092E-17

     End of self-consistent calculation

     Convergence has been achieved 


     Representation #  3 modes #   7  8  9

     Self-consistent Calculation

     Pert. #  1: Fermi energy shift (Ry) =     0.0000E+00     0.0000E+00
     Pert. #  2: Fermi energy shift (Ry) =     0.0000E+00     0.0000E+00
     Pert. #  3: Fermi energy shift (Ry) =     0.0000E+00     0.0000E+00

      iter #   1 total cpu time :    39.9 secs   av.it.:   8.9
      thresh= 1.000E-02 alpha_mix =  0.500 |ddv_scf|^2 =  1.849E-06

     Pert. #  1: Fermi energy shift (Ry) =     0.0000E+00     0.0000E+00
     Pert. #  2: Fermi energy shift (Ry) =     0.0000E+00     0.0000E+00
     Pert. #  3: Fermi energy shift (Ry) =     0.0000E+00     0.0000E+00

      iter #   2 total cpu time :    42.6 secs   av.it.:  15.4
      thresh= 1.360E-04 alpha_mix =  0.500 |ddv_scf|^2 =  1.061E-08

     Pert. #  1: Fermi energy shift (Ry) =     0.0000E+00     0.0000E+00
     Pert. #  2: Fermi energy shift (Ry) =     0.0000E+00     0.0000E+00
     Pert. #  3: Fermi energy shift (Ry) =     0.0000E+00     0.0000E+00

      iter #   3 total cpu time :    45.3 secs   av.it.:  15.7
      thresh= 1.030E-05 alpha_mix =  0.500 |ddv_scf|^2 =  8.563E-10

     Pert. #  1: Fermi energy shift (Ry) =     0.0000E+00     0.0000E+00
     Pert. #  2: Fermi energy shift (Ry) =     0.0000E+00     0.0000E+00
     Pert. #  3: Fermi energy shift (Ry) =     0.0000E+00     0.0000E+00

      iter #   4 total cpu time :    48.2 secs   av.it.:  16.4
      thresh= 2.926E-06 alpha_mix =  0.500 |ddv_scf|^2 =  2.084E-11

     Pert. #  1: Fermi energy shift (Ry) =     0.0000E+00     0.0000E+00
     Pert. #  2: Fermi energy shift (Ry) =     0.0000E+00     0.0000E+00
     Pert. #  3: Fermi energy shift (Ry) =     0.0000E+00     0.0000E+00

      iter #   5 total cpu time :    51.0 secs   av.it.:  16.6
      thresh= 4.565E-07 alpha_mix =  0.500 |ddv_scf|^2 =  1.276E-12

     Pert. #  1: Fermi energy shift (Ry) =     0.0000E+00     0.0000E+00
     Pert. #  2: Fermi energy shift (Ry) =     0.0000E+00     0.0000E+00
     Pert. #  3: Fermi energy shift (Ry) =     0.0000E+00     0.0000E+00

      iter #   6 total cpu time :    53.9 secs   av.it.:  15.3
      thresh= 1.130E-07 alpha_mix =  0.500 |ddv_scf|^2 =  8.251E-15

     End of self-consistent calculation

     Convergence has been achieved 


     Representation #  4 modes #  10 11 12

     Self-consistent Calculation

     Pert. #  1: Fermi energy shift (Ry) =     6.4623E-27    -1.5673E-38
     Pert. #  2: Fermi energy shift (Ry) =    -5.8045E-27    -2.6356E-38
     Pert. #  3: Fermi energy shift (Ry) =    -3.2985E-27    -5.1183E-38

      iter #   1 total cpu time :    56.2 secs   av.it.:   7.8
      thresh= 1.000E-02 alpha_mix =  0.500 |ddv_scf|^2 =  7.822E-07

     Pert. #  1: Fermi energy shift (Ry) =    -6.8932E-26     0.0000E+00
     Pert. #  2: Fermi energy shift (Ry) =    -2.0353E-28     2.7503E-41
     Pert. #  3: Fermi energy shift (Ry) =    -6.4623E-27     1.0791E-39

      iter #   2 total cpu time :    58.8 secs   av.it.:  15.2
      thresh= 8.844E-05 alpha_mix =  0.500 |ddv_scf|^2 =  7.202E-09

     Pert. #  1: Fermi energy shift (Ry) =     6.8932E-26    -1.5306E-41
     Pert. #  2: Fermi energy shift (Ry) =    -5.0082E-27    -1.0911E-42
     Pert. #  3: Fermi energy shift (Ry) =     6.6643E-26     1.6143E-42

      iter #   3 total cpu time :    61.6 secs   av.it.:  16.4
      thresh= 8.486E-06 alpha_mix =  0.500 |ddv_scf|^2 =  4.066E-10

     Pert. #  1: Fermi energy shift (Ry) =    -6.8932E-26    -1.5306E-41
     Pert. #  2: Fermi energy shift (Ry) =    -1.1052E-27    -6.7051E-42
     Pert. #  3: Fermi energy shift (Ry) =    -6.4893E-26     2.1255E-41

      iter #   4 total cpu time :    64.6 secs   av.it.:  16.7
      thresh= 2.017E-06 alpha_mix =  0.500 |ddv_scf|^2 =  6.157E-12

     Pert. #  1: Fermi energy shift (Ry) =    -1.7233E-26     5.7397E-42
     Pert. #  2: Fermi energy shift (Ry) =     1.2517E-28    -1.9128E-42
     Pert. #  3: Fermi energy shift (Ry) =    -2.5715E-26     1.8759E-42

      iter #   5 total cpu time :    67.4 secs   av.it.:  15.8
      thresh= 2.481E-07 alpha_mix =  0.500 |ddv_scf|^2 =  1.401E-13

     Pert. #  1: Fermi energy shift (Ry) =    -3.4466E-26     0.0000E+00
     Pert. #  2: Fermi energy shift (Ry) =    -5.6977E-27     0.0000E+00
     Pert. #  3: Fermi energy shift (Ry) =     3.9717E-27     0.0000E+00

      iter #   6 total cpu time :    70.3 secs   av.it.:  15.7
      thresh= 3.743E-08 alpha_mix =  0.500 |ddv_scf|^2 =  4.104E-15

     End of self-consistent calculation

     Convergence has been achieved 

     Number of q in the star =    1
     List of q in the star:
          1   0.000000000   0.000000000   0.000000000

     Diagonalizing the dynamical matrix

     q = (    0.000000000   0.000000000   0.000000000 ) 

 **************************************************************************
     freq (    1) =      -0.201771 [THz] =      -6.730371 [cm-1]
     freq (    2) =      -0.201771 [THz] =      -6.730371 [cm-1]
     freq (    3) =      -0.201771 [THz] =      -6.730371 [cm-1]
     freq (    4) =      11.358300 [THz] =     378.872113 [cm-1]
     freq (    5) =      11.358300 [THz] =     378.872113 [cm-1]
     freq (    6) =      11.358300 [THz] =     378.872113 [cm-1]
     freq (    7) =      11.580853 [THz] =     386.295668 [cm-1]
     freq (    8) =      11.580853 [THz] =     386.295668 [cm-1]
     freq (    9) =      11.580853 [THz] =     386.295668 [cm-1]
     freq (   10) =      22.484567 [THz] =     750.004428 [cm-1]
     freq (   11) =      22.484567 [THz] =     750.004428 [cm-1]
     freq (   12) =      22.484567 [THz] =     750.004428 [cm-1]
 **************************************************************************

     Calculation of q =    0.5000000   0.0000000   0.0000000

[...]
        k(  110) = (   0.8750000   0.9583333   0.9583333), wk =   0.0000000
        k(  111) = (   0.4583333   0.4583333   0.4583333), wk =   0.0092593
        k(  112) = (   0.9583333   0.9583333   0.9583333), wk =   0.0000000

     PseudoPot. # 1 for Re read from file:
     /public3/home/sc55341/softwares/pseudopotentials/PSLibrary/PAW_PZ_SR/Re.pz-spn-kjpaw_psl.1.0.0.UPF
     MD5 check sum: e20c4421fc7df49efa73a723ca3fc2a4
     Pseudo is Projector augmented-wave + core cor, Zval = 15.0
     Generated using "atomic" code by A. Dal Corso v.6.2.2
     Shape of augmentation charge: PSQ
     Using radial grid of 1275 points,  6 beta functions with: 
                l(1) =   0
                l(2) =   0
                l(3) =   1
                l(4) =   1
                l(5) =   2
                l(6) =   2
     Q(r) pseudized with 0 coefficients 


     PseudoPot. # 2 for O  read from file:
     /public3/home/sc55341/softwares/pseudopotentials/PSLibrary/PAW_PZ_SR/O.pz-n-kjpaw_psl.0.1.UPF
     MD5 check sum: 6b8961753bc530cd482b40fd8ffb4c91
     Pseudo is Projector augmented-wave + core cor, Zval =  6.0
     Generated using "atomic" code by A. Dal Corso v.5.0.2 svn rev. 9415
     Shape of augmentation charge: BESSEL
     Using radial grid of 1095 points,  4 beta functions with: 
                l(1) =   0
                l(2) =   0
                l(3) =   1
                l(4) =   1
     Q(r) pseudized with 0 coefficients 



     Atomic displacements:
     There are   5 irreducible representations

     Representation     1      1 modes -  To be done
     Irreps are as follows:

                     mode #   1
                     (   0.00000  -0.00000   ) 
                     (   0.00000   0.00000   ) 
                     (  -0.57735  -0.00000   ) 
                     (   0.00000   0.00000   ) 
                     (  -0.57735   0.00000   ) 
                     (   0.00000   0.00000   ) 
                     (  -0.57735   0.00000   ) 
                     (   0.00000   0.00000   ) 
                     (   0.00000  -0.00000   ) 
                     (   0.00000  -0.00000   ) 
                     (   0.00000  -0.00000   ) 
                     (   0.00000  -0.00000   ) 

     Representation     2      3 modes -  To be done
     Irreps are as follows:

     mode #   2              mode #   3              mode #   4
     (   0.00000   0.00000 ) (  -0.00000   0.00000 ) (  -0.70711  -0.00000 ) 
     (  -0.70711  -0.00000 ) (  -0.00000   0.00000 ) (  -0.00000   0.00000 ) 
     (  -0.00000   0.00000 ) (  -0.00000  -0.00000 ) (  -0.00000   0.00000 ) 
     (  -0.00000   0.00000 ) (  -0.70711  -0.00000 ) (   0.00000   0.00000 ) 
     (   0.00000   0.00000 ) (  -0.00000  -0.00000 ) (  -0.00000   0.00000 ) 
     (  -0.70711   0.00000 ) (  -0.00000  -0.00000 ) (  -0.00000   0.00000 ) 
     (   0.00000   0.00000 ) (  -0.00000   0.00000 ) (  -0.00000   0.00000 ) 
     (   0.00000  -0.00000 ) (  -0.70711  -0.00000 ) (  -0.00000   0.00000 ) 
     (  -0.00000  -0.00000 ) (   0.00000  -0.00000 ) (  -0.70711   0.00000 ) 
     (  -0.00000  -0.00000 ) (   0.00000  -0.00000 ) (  -0.00000  -0.00000 ) 
     (  -0.00000  -0.00000 ) (   0.00000  -0.00000 ) (  -0.00000  -0.00000 ) 
     (  -0.00000  -0.00000 ) (   0.00000  -0.00000 ) (  -0.00000  -0.00000 ) 

     Representation     3      3 modes -  To be done
     Irreps are as follows:

     mode #   5              mode #   6              mode #   7
     (  -0.00000   0.00000 ) (  -0.00000  -0.00000 ) (  -0.00000   0.00000 ) 
     (  -0.00000   0.00000 ) (  -0.00000  -0.00000 ) (  -0.00000   0.00000 ) 
     (  -0.00000   0.00000 ) (  -0.00000  -0.00000 ) (  -0.00000   0.00000 ) 
     (  -0.00000   0.00000 ) (  -0.00000  -0.00000 ) (  -0.00000   0.00000 ) 
     (  -0.00000   0.00000 ) (  -0.00000  -0.00000 ) (  -0.00000   0.00000 ) 
     (  -0.00000   0.00000 ) (  -0.00000  -0.00000 ) (  -0.00000   0.00000 ) 
     (  -0.00000   0.00000 ) (  -0.00000  -0.00000 ) (  -0.00000   0.00000 ) 
     (  -0.00000   0.00000 ) (  -0.00000  -0.00000 ) (  -0.00000   0.00000 ) 
     (  -0.00000   0.00000 ) (  -0.00000  -0.00000 ) (  -0.00000   0.00000 ) 
     (  -1.00000  -0.00000 ) (  -0.00000  -0.00000 ) (  -0.00000   0.00000 ) 
     (  -0.00000  -0.00000 ) (  -0.00000  -0.00000 ) (  -1.00000  -0.00000 ) 
     (  -0.00000  -0.00000 ) (  -1.00000  -0.00000 ) (  -0.00000  -0.00000 ) 

     Representation     4      2 modes -  To be done
     Irreps are as follows:

           mode #   8                           mode #   9
           (  -0.00000  -0.00000   )            (  -0.00000   0.00000   ) 
           (   0.00000  -0.00000   )            (   0.00000  -0.00000   ) 
           (  -0.71946  -0.00000   )            (  -0.38605  -0.00000   ) 
           (   0.00000  -0.00000   )            (  -0.00000  -0.00000   ) 
           (   0.69051  -0.04865   )            (  -0.42342   0.09067   ) 
           (  -0.00000   0.00000   )            (   0.00000   0.00000   ) 
           (   0.02896   0.04865   )            (   0.80947  -0.09067   ) 
           (   0.00000  -0.00000   )            (  -0.00000  -0.00000   ) 
           (  -0.00000   0.00000   )            (  -0.00000  -0.00000   ) 
           (  -0.00000   0.00000   )            (  -0.00000  -0.00000   ) 
           (  -0.00000   0.00000   )            (  -0.00000  -0.00000   ) 
           (  -0.00000   0.00000   )            (  -0.00000  -0.00000   ) 

     Representation     5      3 modes -  To be done
     Irreps are as follows:

     mode #  10              mode #  11              mode #  12
     (  -0.00000  -0.00000 ) (  -0.70711  -0.00000 ) (  -0.00000   0.00000 ) 
     (  -0.70711  -0.00000 ) (   0.00000  -0.00000 ) (   0.00000  -0.00000 ) 
     (  -0.00000  -0.00000 ) (   0.00000  -0.00000 ) (  -0.00000   0.00000 ) 
     (   0.00000  -0.00000 ) (   0.00000   0.00000 ) (  -0.70711  -0.00000 ) 
     (   0.00000   0.00000 ) (   0.00000  -0.00000 ) (  -0.00000   0.00000 ) 
     (   0.70711  -0.00000 ) (   0.00000  -0.00000 ) (  -0.00000   0.00000 ) 
     (   0.00000   0.00000 ) (   0.00000  -0.00000 ) (  -0.00000   0.00000 ) 
     (  -0.00000   0.00000 ) (  -0.00000  -0.00000 ) (   0.70711   0.00000 ) 
     (  -0.00000  -0.00000 ) (   0.70711  -0.00000 ) (  -0.00000  -0.00000 ) 
     (  -0.00000  -0.00000 ) (   0.00000  -0.00000 ) (  -0.00000  -0.00000 ) 
     (  -0.00000  -0.00000 ) (   0.00000  -0.00000 ) (  -0.00000  -0.00000 ) 
     (  -0.00000  -0.00000 ) (   0.00000  -0.00000 ) (  -0.00000  -0.00000 ) 



     Alpha used in Ewald sum =   2.8000
     PHONON       :   5m42.74s CPU   6m10.32s WALL



     Representation #  1 mode #   1

     Self-consistent Calculation

      iter #   1 total cpu time :   371.1 secs   av.it.:   8.1
      thresh= 1.000E-02 alpha_mix =  0.500 |ddv_scf|^2 =  1.234E-04

      iter #   2 total cpu time :   372.3 secs   av.it.:  13.2
      thresh= 1.111E-03 alpha_mix =  0.500 |ddv_scf|^2 =  6.355E-04

      iter #   3 total cpu time :   373.2 secs   av.it.:  11.5
      thresh= 2.521E-03 alpha_mix =  0.500 |ddv_scf|^2 =  1.602E-06

      iter #   4 total cpu time :   374.1 secs   av.it.:  11.8
      thresh= 1.266E-04 alpha_mix =  0.500 |ddv_scf|^2 =  2.917E-09

      iter #   5 total cpu time :   375.0 secs   av.it.:  13.1
      thresh= 5.401E-06 alpha_mix =  0.500 |ddv_scf|^2 =  9.496E-11

      iter #   6 total cpu time :   375.9 secs   av.it.:  12.9
      thresh= 9.745E-07 alpha_mix =  0.500 |ddv_scf|^2 =  1.173E-12

      iter #   7 total cpu time :   376.9 secs   av.it.:  12.9
      thresh= 1.083E-07 alpha_mix =  0.500 |ddv_scf|^2 =  2.420E-14

      iter #   8 total cpu time :   377.8 secs   av.it.:  10.8
      thresh= 1.556E-08 alpha_mix =  0.500 |ddv_scf|^2 =  3.454E-15

     End of self-consistent calculation

     Convergence has been achieved 


     Representation #  2 modes #   2  3  4

     Self-consistent Calculation

      iter #   1 total cpu time :   380.1 secs   av.it.:   7.5
      thresh= 1.000E-02 alpha_mix =  0.500 |ddv_scf|^2 =  1.051E-06

      iter #   2 total cpu time :   382.8 secs   av.it.:  13.9
      thresh= 1.025E-04 alpha_mix =  0.500 |ddv_scf|^2 =  7.288E-09

      iter #   3 total cpu time :   385.6 secs   av.it.:  15.3
      thresh= 8.537E-06 alpha_mix =  0.500 |ddv_scf|^2 =  1.058E-10

      iter #   4 total cpu time :   388.7 secs   av.it.:  16.7
      thresh= 1.029E-06 alpha_mix =  0.500 |ddv_scf|^2 =  3.429E-12

      iter #   5 total cpu time :   391.5 secs   av.it.:  14.3
      thresh= 1.852E-07 alpha_mix =  0.500 |ddv_scf|^2 =  4.506E-14

      iter #   6 total cpu time :   394.1 secs   av.it.:  14.3
      thresh= 2.123E-08 alpha_mix =  0.500 |ddv_scf|^2 =  5.280E-15

     End of self-consistent calculation

     Convergence has been achieved 


     Representation #  3 modes #   5  6  7

     Self-consistent Calculation

      iter #   1 total cpu time :   396.7 secs   av.it.:   9.4
      thresh= 1.000E-02 alpha_mix =  0.500 |ddv_scf|^2 =  6.887E-06

      iter #   2 total cpu time :   399.6 secs   av.it.:  16.5
      thresh= 2.624E-04 alpha_mix =  0.500 |ddv_scf|^2 =  1.093E-05

      iter #   3 total cpu time :   402.4 secs   av.it.:  15.2
      thresh= 3.306E-04 alpha_mix =  0.500 |ddv_scf|^2 =  5.715E-07

      iter #   4 total cpu time :   405.2 secs   av.it.:  15.2
      thresh= 7.560E-05 alpha_mix =  0.500 |ddv_scf|^2 =  6.440E-10

      iter #   5 total cpu time :   408.1 secs   av.it.:  16.1
      thresh= 2.538E-06 alpha_mix =  0.500 |ddv_scf|^2 =  3.161E-11

      iter #   6 total cpu time :   410.9 secs   av.it.:  15.0
      thresh= 5.623E-07 alpha_mix =  0.500 |ddv_scf|^2 =  2.442E-12

      iter #   7 total cpu time :   413.7 secs   av.it.:  15.4
      thresh= 1.563E-07 alpha_mix =  0.500 |ddv_scf|^2 =  6.029E-14

      iter #   8 total cpu time :   416.8 secs   av.it.:  15.6
      thresh= 2.455E-08 alpha_mix =  0.500 |ddv_scf|^2 =  9.851E-17

     End of self-consistent calculation

     Convergence has been achieved 


     Representation #  4 modes #   8  9

     Self-consistent Calculation

      iter #   1 total cpu time :   419.3 secs   av.it.:   7.6
      thresh= 1.000E-02 alpha_mix =  0.500 |ddv_scf|^2 =  4.104E-07

      iter #   2 total cpu time :   421.4 secs   av.it.:  14.8
      thresh= 6.406E-05 alpha_mix =  0.500 |ddv_scf|^2 =  2.205E-08

      iter #   3 total cpu time :   423.2 secs   av.it.:  15.9
      thresh= 1.485E-05 alpha_mix =  0.500 |ddv_scf|^2 =  8.730E-11

      iter #   4 total cpu time :   425.6 secs   av.it.:  16.2
      thresh= 9.344E-07 alpha_mix =  0.500 |ddv_scf|^2 =  3.381E-12

      iter #   5 total cpu time :   427.7 secs   av.it.:  13.7
      thresh= 1.839E-07 alpha_mix =  0.500 |ddv_scf|^2 =  9.765E-14

      iter #   6 total cpu time :   429.4 secs   av.it.:  13.8
      thresh= 3.125E-08 alpha_mix =  0.500 |ddv_scf|^2 =  6.925E-15

     End of self-consistent calculation

     Convergence has been achieved 


     Representation #  5 modes #  10 11 12

     Self-consistent Calculation

      iter #   1 total cpu time :   432.1 secs   av.it.:   6.9
      thresh= 1.000E-02 alpha_mix =  0.500 |ddv_scf|^2 =  1.360E-07

      iter #   2 total cpu time :   434.9 secs   av.it.:  14.6
      thresh= 3.687E-05 alpha_mix =  0.500 |ddv_scf|^2 =  9.465E-09

      iter #   3 total cpu time :   437.9 secs   av.it.:  15.5
      thresh= 9.729E-06 alpha_mix =  0.500 |ddv_scf|^2 =  1.808E-11

      iter #   4 total cpu time :   440.9 secs   av.it.:  15.6
      thresh= 4.252E-07 alpha_mix =  0.500 |ddv_scf|^2 =  6.003E-13

      iter #   5 total cpu time :   443.4 secs   av.it.:  11.4
      thresh= 7.748E-08 alpha_mix =  0.500 |ddv_scf|^2 =  5.727E-14

      iter #   6 total cpu time :   446.2 secs   av.it.:  14.7
      thresh= 2.393E-08 alpha_mix =  0.500 |ddv_scf|^2 =  1.021E-17

     End of self-consistent calculation

     Convergence has been achieved 

     Number of q in the star =    1
     List of q in the star:
          1   0.500000000   0.500000000   0.500000000

     Diagonalizing the dynamical matrix

     q = (    0.500000000   0.500000000   0.500000000 ) 

 **************************************************************************
     freq (    1) =       2.528175 [THz] =      84.330848 [cm-1]
     freq (    2) =       2.528175 [THz] =      84.330848 [cm-1]
     freq (    3) =       2.528175 [THz] =      84.330848 [cm-1]
     freq (    4) =       9.250579 [THz] =     308.566098 [cm-1]
     freq (    5) =       9.250579 [THz] =     308.566098 [cm-1]
     freq (    6) =       9.250579 [THz] =     308.566098 [cm-1]
     freq (    7) =      14.414226 [THz] =     480.806842 [cm-1]
     freq (    8) =      14.414226 [THz] =     480.806842 [cm-1]
     freq (    9) =      14.414226 [THz] =     480.806842 [cm-1]
     freq (   10) =      24.617374 [THz] =     821.147224 [cm-1]
     freq (   11) =      24.617374 [THz] =     821.147224 [cm-1]
     freq (   12) =      30.995116 [THz] =    1033.885796 [cm-1]
 **************************************************************************

     init_run     :      0.83s CPU      0.90s WALL (       3 calls)
     electrons    :      8.80s CPU      9.80s WALL (       3 calls)

     Called by init_run:
     wfcinit      :      0.00s CPU      0.04s WALL (       3 calls)
     wfcinit:atom :      0.02s CPU      0.02s WALL (      78 calls)
     wfcinit:wfcr :      0.47s CPU      0.48s WALL (      78 calls)
     potinit      :      0.07s CPU      0.08s WALL (       3 calls)
     hinit0       :      0.52s CPU      0.53s WALL (       3 calls)

     Called by electrons:
     c_bands      :      8.79s CPU      9.77s WALL (       3 calls)
     v_of_rho     :      0.01s CPU      0.01s WALL (       4 calls)
     v_h          :      0.00s CPU      0.00s WALL (       4 calls)
     v_xc         :      0.01s CPU      0.01s WALL (       8 calls)
     newd         :      0.01s CPU      0.01s WALL (       4 calls)
     PAW_pot      :      0.09s CPU      0.09s WALL (       4 calls)

     Called by c_bands:
     init_us_2    :      0.85s CPU      1.01s WALL (    3056 calls)
     cegterg      :      7.20s CPU      7.97s WALL (      78 calls)

     Called by sum_band:

     Called by *egterg:
     h_psi        :    230.16s CPU    239.53s WALL (   97074 calls)
     s_psi        :     16.75s CPU     17.30s WALL (  196644 calls)
     g_psi        :      0.05s CPU      0.05s WALL (    1228 calls)
     cdiaghg      :      1.95s CPU      2.04s WALL (    1306 calls)
     cegterg:over :      0.79s CPU      1.31s WALL (    1228 calls)
     cegterg:upda :      0.42s CPU      0.43s WALL (    1228 calls)
     cegterg:last :      0.27s CPU      0.27s WALL (     239 calls)
     cdiaghg:chol :      0.11s CPU      0.13s WALL (    1306 calls)
     cdiaghg:inve :      0.03s CPU      0.04s WALL (    1306 calls)
     cdiaghg:para :      0.20s CPU      0.22s WALL (    2612 calls)

     Called by h_psi:
     h_psi:pot    :    228.89s CPU    238.22s WALL (   97074 calls)
     h_psi:calbec :     11.35s CPU     11.77s WALL (   97074 calls)
     vloc_psi     :    209.23s CPU    217.94s WALL (   97074 calls)
     add_vuspsi   :      7.95s CPU      8.17s WALL (   97074 calls)

     General routines
     calbec       :     24.88s CPU     26.03s WALL (  203928 calls)
     fft          :      0.70s CPU      0.71s WALL (    2821 calls)
     ffts         :      0.34s CPU      0.36s WALL (    1420 calls)
     fftw         :    213.49s CPU    223.66s WALL ( 2331570 calls)
     davcio       :      1.67s CPU      2.84s WALL (   18936 calls)

     Parallel routines
     fft_scatt_xy :     25.05s CPU     26.01s WALL ( 2335811 calls)
     fft_scatt_yz :     86.53s CPU     91.72s WALL ( 2335811 calls)

     PAW routines
     PAW_pot      :      0.09s CPU      0.09s WALL (       4 calls)

     PHONON       :   6m54.10s CPU   7m26.53s WALL

     INITIALIZATION: 
     phq_setup    :      0.02s CPU      0.08s WALL (       4 calls)
     phq_init     :      7.79s CPU      7.96s WALL (       4 calls)

     phq_init     :      7.79s CPU      7.96s WALL (       4 calls)
     set_drhoc    :      2.42s CPU      2.42s WALL (      12 calls)
     init_vloc    :      0.06s CPU      0.06s WALL (       4 calls)
     init_us_1    :      0.45s CPU      0.46s WALL (       4 calls)
     newd         :      0.01s CPU      0.01s WALL (       4 calls)
     dvanqq       :      0.80s CPU      0.81s WALL (       4 calls)
     drho         :      2.89s CPU      2.97s WALL (       4 calls)

     DYNAMICAL MATRIX:
     dynmat0      :      2.09s CPU      2.15s WALL (       4 calls)
     phqscf       :    394.62s CPU    423.51s WALL (       4 calls)
     dynmatrix    :      0.21s CPU      0.27s WALL (       4 calls)

     phqscf       :    394.62s CPU    423.51s WALL (       4 calls)
     solve_linter :    393.81s CPU    421.23s WALL (      26 calls)
     drhodv       :      0.77s CPU      0.83s WALL (      26 calls)

     dynmat0      :      2.09s CPU      2.15s WALL (       4 calls)
     dynmat_us    :      0.35s CPU      0.36s WALL (       4 calls)
     d2ionq       :      0.12s CPU      0.12s WALL (       4 calls)
     dynmatcc     :      1.61s CPU      1.61s WALL (       4 calls)

     dynmat_us    :      0.35s CPU      0.36s WALL (       4 calls)
     addusdynmat  :      0.00s CPU      0.00s WALL (       4 calls)

     phqscf       :    394.62s CPU    423.51s WALL (       4 calls)
     solve_linter :    393.81s CPU    421.23s WALL (      26 calls)

     solve_linter :    393.81s CPU    421.23s WALL (      26 calls)
     dvqpsi_us    :      3.45s CPU      3.54s WALL (     552 calls)
     ortho        :      2.48s CPU      2.62s WALL (    3880 calls)
     cgsolve      :    286.16s CPU    298.19s WALL (    3880 calls)
     incdrhoscf   :     18.74s CPU     20.64s WALL (    3880 calls)
     addusddens   :      4.84s CPU      4.86s WALL (     211 calls)
     vpsifft      :     12.51s CPU     13.46s WALL (    3328 calls)
     dv_of_drho   :      0.25s CPU      0.26s WALL (     328 calls)
     mix_pot      :      0.56s CPU      3.36s WALL (     185 calls)
     ef_shift     :      0.04s CPU      0.07s WALL (      28 calls)
     localdos     :      0.25s CPU      0.26s WALL (       4 calls)
     psymdvscf    :     26.15s CPU     26.47s WALL (     185 calls)
     newdq        :      6.72s CPU      6.73s WALL (     185 calls)
     adddvscf     :      0.98s CPU      1.02s WALL (    3328 calls)
     drhodvus     :      0.02s CPU      0.04s WALL (      26 calls)

     dvqpsi_us    :      3.45s CPU      3.54s WALL (     552 calls)
     dvqpsi_us_on :      0.75s CPU      0.76s WALL (     552 calls)

     cgsolve      :    286.16s CPU    298.19s WALL (    3880 calls)
     ch_psi       :    273.89s CPU    285.25s WALL (   95690 calls)

     ch_psi       :    273.89s CPU    285.25s WALL (   95690 calls)
     h_psi        :    230.16s CPU    239.53s WALL (   97074 calls)
     last         :     35.92s CPU     37.69s WALL (   95690 calls)

     h_psi        :    230.16s CPU    239.53s WALL (   97074 calls)
     add_vuspsi   :      7.95s CPU      8.17s WALL (   97074 calls)

     incdrhoscf   :     18.74s CPU     20.64s WALL (    3880 calls)
     addusdbec    :      0.98s CPU      1.00s WALL (    4432 calls)

     drhodvus     :      0.02s CPU      0.04s WALL (      26 calls)

      General routines
     calbec       :     24.88s CPU     26.03s WALL (  203928 calls)
     fft          :      0.70s CPU      0.71s WALL (    2821 calls)
     ffts         :      0.34s CPU      0.36s WALL (    1420 calls)
     fftw         :    213.49s CPU    223.66s WALL ( 2331570 calls)
     davcio       :      1.67s CPU      2.84s WALL (   18936 calls)
     write_rec    :      0.20s CPU      8.57s WALL (     211 calls)


     PHONON       :   6m54.10s CPU   7m26.53s WALL


   This run was terminated on:  23:33: 8  26Jan2021            

=------------------------------------------------------------------------------=
   JOB DONE.
=------------------------------------------------------------------------------=
